/*--------------------------------*- C++ -*----------------------------------*\
| =========                 |                                                 |
| \\      /  F ield         | OpenFOAM: The Open Source CFD Toolbox           |
|  \\    /   O peration     | Version:  2212                                  |
|   \\  /    A nd           | Website:  www.openfoam.com                      |
|    \\/     M anipulation  |                                                 |
\*---------------------------------------------------------------------------*/
FoamFile
{
    version     2.0;
    format      ascii;
    arch        "LSB;label=32;scalar=64";
    class       volScalarField;
    location    "10";
    object      epsilon;
}
// * * * * * * * * * * * * * * * * * * * * * * * * * * * * * * * * * * * * * //

dimensions      [0 2 -3 0 0 0 0];

internalField   nonuniform List<scalar> 
77035
(
2324.54
1914.27
975.511
4449.44
4610.66
621.045
615.903
67.5783
938.139
99.2504
46.9108
45.2754
48.7661
48.2086
7382.69
43.0203
1447.28
138.456
1637.17
249.48
596.963
1094.01
3148.95
4972.85
419.844
575.438
5634.96
5413.1
2128.54
42.303
486.721
244.833
133.977
242.771
223.595
6508.23
1173.12
2202.7
391.549
432.398
2136.55
46.0706
2859.28
2996.29
485.428
575.955
1318.1
761.66
449.064
3459.62
3935.94
796.279
2554.01
215.049
1102.56
1399.24
1589.49
3641.66
321.777
4536.62
707.769
406.825
1414.99
45.6102
519.169
174.347
40.556
5249.49
460.844
50.9515
345.129
2732.98
1093.25
1426.84
51.7077
43.538
1325.74
1729.83
726.531
6449.83
3832.01
3557.15
143.442
113.514
71.4591
1046.15
313.421
320.14
77.8289
188.696
1768.79
475.128
470.521
3670.29
6153.18
1974.68
1944.17
563.276
590.186
3628.72
792.667
440.802
875.156
127.394
128.071
380.787
3419.92
1835.1
1808
42.1107
252.776
586.538
5496.02
5866.5
5617.2
1745.88
546.332
820.077
731.33
1072.21
40.5853
260.51
51.4209
83.6885
67.9046
43.8212
909.311
3265.81
191
3430.26
574.915
1185.63
1492.34
633.628
508.112
75.0272
58.7709
1448.38
391.066
475.676
549.623
44.1857
3517.99
2733.41
953.096
1762.97
930.65
2873.6
1619.91
1322.84
213.094
3458.27
5878.14
5287.98
35.9947
43.5506
509.175
719.532
42.5558
136.112
691.396
544.479
391.775
890.608
1470.17
602.222
214.347
42.3227
2751.1
1043.02
705.113
651.978
42.2195
42.3831
464.904
6996.91
6602.7
1354.08
42.7622
40.4678
49.0426
313.871
7366.64
840.592
1089.4
415.824
349.54
3684.94
725.875
546.549
1821.82
537.694
68.474
217.265
1635.11
885.443
991.805
621.206
60.5432
91.8035
496.734
513.479
627.761
979.616
469.704
608.405
568.478
5556.52
5593.96
6437.82
585.939
467.651
754.961
633.239
6179.19
24.2105
41.1312
4632.61
274.731
718.348
11070.8
6811.4
1761.52
299.763
3198.25
47.461
1631.57
178.045
369.038
318.517
340.311
373.488
76.5655
78.7126
54.9277
4660.14
3604.48
44.9385
2408.83
103.147
45.4942
1566.8
1692.48
483.925
415.073
362.278
47.6474
794.604
1859.17
926.538
1953.99
463.209
158.358
790.872
470.106
140.529
71.7842
36.993
1076.06
305.075
896.977
108.816
285.336
349.942
166.658
411.058
1772.67
5393.32
1280.5
38.6084
554.514
590.457
78.0791
861.277
1328.34
128.312
337.078
488.809
811.974
37.867
655.39
725.547
537.634
1677.47
5086.36
6974.78
937.055
229.311
195.633
746.582
588.899
844.781
527.953
32.4645
701.124
390.311
1353.03
1566.13
2034.38
302.998
2970.93
742.657
33.7034
41.1131
673.919
142.52
103.158
157.751
5383.41
182.652
113.575
570.553
599.799
276.243
480.541
642.128
234.464
332.771
82.1521
993.592
799.964
2787.29
1340.18
40.0076
37.8664
45.5458
6295.71
331.905
491.141
364.308
859.068
4871.13
1184.56
975.37
604.921
6653.14
38.6013
472.794
397.365
36.1154
403.61
338.469
9790.72
691.499
4340.4
6131.72
950.858
1501.26
3834.06
40.4641
5000.25
6236.56
39.8911
2636.56
150.573
1397.4
348.436
258.877
214.219
2509.24
12159.1
9159.38
209.345
6645.08
35.7172
793.839
360.987
1410.73
558.32
535.038
9791.41
2411.24
7128.92
8514.38
56.3964
5574.52
43.831
711.128
9884.52
3123.18
643.79
4236.35
99.4688
103.142
2259.53
858.816
8579.89
2923.55
12044.4
193.62
401.436
5427.81
519.184
127.513
1074.99
479.844
41.8224
2511.93
1310.62
123.581
361.718
9124.52
171.628
8117.09
3529.72
1222.3
342.605
887.571
5197.72
7815.08
1603.21
646.165
596.651
6984.87
2079.47
343.572
2853.58
11090
6474.39
1365.68
47.0064
10973.7
483.343
9802.18
11114.2
324.336
9904.98
126.802
7269.3
220.854
8465.54
6432.49
10709.2
215.714
1070.57
566.754
282.537
45.9591
846.8
608.229
185.878
71.8588
122.648
3929.33
1047.02
4613.1
11603.1
10241.3
770.328
8903.62
8297.59
40.5239
1358.36
5073.81
8119.9
6711.63
2437.81
5898.61
1948.37
9724.16
11708.6
7936.38
2428.28
7517.37
541.144
1721.22
4621.61
177.571
250.789
9805.94
11465.4
6595.76
7123.63
11126
11270.1
10195.5
6870.14
6185.69
9302.81
8180.99
692.243
473.651
998.188
1209.69
145.504
573.962
1140.8
292.453
8274.52
8882.02
1121.99
1182.25
9092.07
50.8613
47.6378
2147.85
36.7754
4595.37
232.086
3753.27
9932.99
393.462
419.217
8757.11
9819.68
8721.9
789.204
807.597
6480.97
7972.63
4041.24
5890.43
1817.01
1250.16
10249.5
6995.67
460.069
8701.31
694.247
4258.3
1088.45
2500.81
438.287
1004.68
8614.91
3730.37
7997.26
8516.06
8487.94
4716.42
564.251
10939.7
3168.05
6634.51
165.327
187.322
8557.7
7508.06
493.49
560.116
42.6801
7483.09
5383.52
10136.7
887.8
12019.6
46.8586
1970.41
423.873
209.11
1360.13
342.354
10859.5
603.616
418.951
742.63
114.75
231.626
656.459
464.427
572.481
1082.29
553.912
346.568
473.787
606.433
406.115
5992.1
7016.54
9751.49
112.031
592.672
327.54
888.103
1764.09
10312.9
11069.8
8851.01
9723.83
43.6883
40.3957
378.613
475.016
564.888
6422.06
157.962
1838.29
87.5637
445.446
4304.74
341.31
503
1469.67
9331.03
3258.11
6511.43
395.9
572.235
155.908
238.417
259.145
253.662
213.321
8987.41
917.242
479.054
647.298
33.508
7093.41
1436.03
5299.4
2965.6
434.571
1289.32
5375.27
181.427
166.214
184.947
761.793
7091.88
205.125
2312.09
590.423
320.093
420.991
1499.37
207.098
9317.31
549.028
479.997
1750.18
621.629
45.1486
3766.78
5096.16
1720.75
474.046
478.152
863.368
1914.83
9739.29
638.32
480.606
4642.26
256.296
1312.67
1109.99
42.1586
842.599
10493.8
541.731
38.9646
1137.94
1104.02
1488.93
2717.58
3693.79
319.885
4367.63
252.857
1317.77
638.442
45.0471
1538.5
44.2519
1906.11
1161.12
1531.98
4045.21
8035.61
34.9268
1842.08
1902.01
2164.56
1198.23
212.458
568.718
518.299
214.113
38.3986
611.889
904.875
5158.38
1324.71
454.139
399.382
50.8588
674.852
114.581
9940.93
2093.97
5571.56
5631.46
1663.3
40.7592
278.33
320.929
3710.9
2633.35
919.32
662.699
694.602
1392.72
36.8002
6333.37
2816.96
676.606
182.333
729.704
5175.65
940.734
34.3112
76.0813
3002.32
2563.03
940.454
397.114
1864.31
200.54
569.046
3440.13
159.251
2758
2539.33
69.4595
51.8519
1239.88
2930.52
543.901
482.773
106.416
494.679
632.793
140.327
43.3724
634.78
5857.52
1250.97
1753.37
811.786
227.618
236.583
973.249
212.274
1548.76
604.292
897.291
662.628
6705.46
6187.38
413.48
1076.05
1803.6
1344.83
981.155
285.143
341.599
884.711
553.896
64.8972
412.844
746.912
211.129
621.827
6059.69
764.531
663.959
710.069
2123.22
1204.74
5323.67
3318.31
1758.1
58.1076
3199.25
7863.24
6916.1
273.171
365.54
850.382
1669.04
891.237
50.9035
78.9033
2554.51
2689.56
1593.06
393.912
7863.72
1133.29
2908.5
846.994
588.981
853.629
669.146
218.291
47.6909
208.27
649.707
993.888
37.4485
1326.75
5648.36
499.102
3411.49
642.887
423.866
3818.23
1826.89
1642.15
8268.87
690.174
469.452
52.869
865.921
2338.98
2150.02
2297.96
4222.91
266.933
3955.42
484.495
180.512
6175.64
462.002
66.6075
1689.03
1358.45
462.4
4765.92
269.776
325.681
532.778
1306.37
41.1393
1324.62
401.092
701.641
1123.83
64.7638
575.775
243.75
867.1
131.223
70.8906
4131.67
274.034
609.805
6667.23
1257.98
1395.88
492.775
1354.67
229.936
214.046
3110.56
347.589
5829.72
5032.04
4378.21
4131.5
282.349
7691.91
42.1548
3347.54
5202.77
961.562
195.08
661.929
975.797
344.619
4632.37
204.606
3898.79
2674.33
185.428
295.608
947.375
1241.19
453.306
395.535
3676.89
2975.96
228.987
2545.59
2067.5
1223.81
530.252
407.827
786.935
33.8419
3399.91
87.3462
80.5657
366.54
37.2314
38.1822
433.312
302.339
5492.91
1053.8
1575.63
557.756
477.825
244.458
7405.45
194.496
457.59
345.165
374.188
5074.38
3468.67
59.5849
3442.34
41.5126
894.271
972.194
120.098
2266.76
4217.41
2920.71
321.241
317.517
39.2395
352.065
565.451
1001.97
1528.8
554.984
567.085
400.498
644.544
4338.82
999.384
197.746
5030.45
4453.64
1304.05
1690.06
569.11
523.85
959.15
5397.21
376.565
167.224
42.2483
42.0147
226.643
274.575
986.656
1167.99
982.869
455.434
49.3682
591.693
265.415
4506.49
1460.21
1548.63
4209.88
317.402
544.13
825.572
519.886
297.769
40.9615
568.563
4123.25
218.737
429.086
40.2687
156.712
4702.22
493.712
974.563
1091.44
3230.36
8233.5
8444.86
1520.71
1686.47
635.702
725.479
4333.74
111.798
138.76
1330.52
40.9758
3083.62
2081.2
643.264
1374.33
1780.42
282.403
364.043
2478.93
1244.95
1692.12
378.473
509.441
668.416
571.229
1412.77
767.691
242.524
256.557
863.621
1058.83
97.0987
133.791
382.531
990.79
1207.79
880.23
553.178
526.691
3495.5
1467.56
1019.67
782.639
473.816
5769.76
1266.21
273.848
1461.09
289.772
599.898
658.667
741.642
832.847
779.851
41.6917
212.164
101.349
944.138
2294.57
1805.16
2945.33
45.3974
43.456
1401.17
4466.77
83.3891
922.214
524.672
46.9403
1217.34
191.109
145.287
1162.23
1010.01
1603.92
6197.33
237.562
1898.3
293.04
57.2057
1928.3
1898.27
6225.28
269.699
382.439
1241.92
1347.68
338.544
3720.21
1092.45
46.2037
1181.04
377.666
35.0566
1393.39
1507.41
3105.7
305.692
790.426
8649.77
8839.98
484.641
927.726
6483.33
4814.38
715.747
317.445
1037.4
657.847
2215.11
1433.76
193.456
683.957
599.691
51.3954
80.921
2276.86
2331.57
71.6173
4742.46
5205.7
48.8136
43.5566
2505.88
855.651
1143.93
186.372
3089.11
476.946
406.397
665.724
658.398
312.348
476.329
557.835
3126.07
2489.4
5456.4
4353.64
3597.2
29.5348
472.755
935.17
760.135
143.995
395.798
814.661
1352.54
956.181
347.843
43.8716
37.8715
3895.47
196.939
59.7978
1019.19
2561.28
2236.69
869.517
698.874
260.388
793.719
39.8669
796.209
59.2633
66.7372
553.723
2516.98
1714.1
1427.99
252.093
83.4465
2543.32
2554.86
1222.17
267.835
1390.26
1069.57
418.303
1909.17
853.073
587.173
2320.87
1658.68
49.1754
53.1464
1591
7960.87
213.348
506.042
38.9707
6460.93
2059.59
420.146
345.877
1428.06
692.536
3657.11
6234.17
624.984
457.892
908.707
650.326
2769.04
342.569
88.0086
86.706
1335.31
4558.59
565.92
925.333
623.498
6530.09
485.584
75.9332
1244.65
1003.28
890.147
1475.48
1523.19
41.0501
1679.86
38.5036
40.5175
1013.99
515.608
2717.67
46.3665
333.533
1170.89
426.682
3653.36
574.008
62.4624
199.946
5720.83
1677.89
1373.1
32.0611
504.493
1374.2
870.545
649.604
1028.26
391.21
2226.47
42.1744
8016.93
107.958
667.126
4534.42
2853.61
1130.34
1687.24
40.2575
2784.8
2870.59
2438.18
135.325
375.498
1980.09
516.511
986.568
1037.91
1042.9
354.099
88.0598
190.51
37.2604
290.496
3224.95
443.683
127.128
43.0817
41.4795
669.975
474.726
465.378
1561.76
4070.71
4115.45
579.045
966.044
2007.93
698.74
1246.6
2599.41
3543.76
1545.66
3864.92
3255.85
1214.45
409.533
57.3735
41.6513
2320.98
6037.47
693.162
109.034
837.982
226.725
709.691
488.298
573.276
123.499
71.8033
3326.13
3207.87
41.154
775.319
325.839
654.633
120.506
8618.92
64.8004
737.273
402.87
224.454
1793.39
865.041
1471.21
971.257
57.2924
39.4526
77.1661
43.6493
209.215
42.7133
114.08
47.3025
1331.7
961.002
1520.12
1112.73
36.4953
239.511
778.593
324.308
4965.12
40.6062
43.2871
605.106
614.015
351.67
1201.76
109.5
762.057
38.4043
1303.66
843.455
1002.23
282.95
46.1431
44.5931
2982.7
419.636
1432.46
3585.51
1449.92
1939.95
241.302
629.573
46.1143
897.12
890.046
44.7441
904.725
3614.93
443.71
1466.9
1239.49
4992.05
462.005
45.1931
558.179
2998.74
952.977
5683.32
544.655
44.1741
1232.63
41.4764
41.3221
3120.41
6513.63
841.77
865.962
43.5852
47.9258
568.999
113.471
87.5293
1910.91
47.8189
54.9413
270.994
719.035
928.919
953.527
1610.95
2126.68
200.46
39.5974
843.228
544.46
4272.55
4801.78
58.1537
553.027
45.5535
1806.82
1595.39
1739.84
338.913
530.259
2919.9
27.6781
5324.6
5187.23
4249.86
4706.05
589.111
3019.66
6558.93
42.3805
41.9256
803.033
1033.07
696.235
319.71
1238.8
3062.39
174.443
1374.45
1867
48.8283
4921.27
1093.6
416.508
4942.42
173.296
975.326
227.918
1618.73
172.975
1021.82
48.8458
3539.77
2611.22
2989.58
163.187
3912.18
42.1459
32.8713
411.431
91.0884
46.2193
47.3909
1674.13
1820.03
525.398
36.7737
34.8675
71.0381
315.281
39.5733
3918.25
445.632
1010.74
48.2566
1193.68
2605.49
4351.62
4259.01
39.9939
216.881
1774.86
258.794
1155.89
108.286
5501.07
6678.35
2278.18
144.029
212.251
784.483
36.0936
1463.82
3289.57
2183.65
1288.66
55.6954
286.537
1180.67
509.989
2795.52
2420.1
39.4342
2372.61
532.945
1100.03
1255.63
56.1412
50.5398
876.964
3001.53
2891.42
534.318
77.8695
103.521
5400.75
1974.02
45.7997
2672.6
8233.94
817.921
2878.38
63.1647
94.8665
1057.8
349.291
1733.68
410.826
401.754
631.192
301.746
1345.79
42.0421
544.614
2603.6
87.7132
263.607
43.0422
41.1764
43.2715
6909.49
1276.96
44.8059
5666.39
41.22
36.8172
34.2743
3130.31
4535.93
4343.35
4877.88
5536.33
916.097
372.168
79.5211
66.407
1274.27
2332.62
42.1654
40.0792
36.4547
64.1514
3583.49
42.5024
47.6545
307.314
606.777
1041.36
3137.09
3062.82
133.865
149.096
980.057
58.0048
429.429
318.519
35.1257
198.85
100.756
1777.08
40.1846
41.95
5847.63
1593.93
1424.73
1267.56
1391.43
764.073
1613.74
1500.83
53.7911
232.643
118.953
1444.39
1331.67
1455.03
530.19
1395.36
2125.66
2840.76
1135.49
380.99
2259.86
59.1805
101.445
267.248
430.065
2630.29
1398.94
1328.57
1430.12
1332.16
1216.69
1284.13
6527.7
1589.94
308.835
105.731
211.026
125.743
207.701
1392.58
47.9935
1400.82
4006.39
3049.95
229.78
4579.56
3807.8
813.096
2102.38
57.2067
63.6998
35.8783
2318.76
306.332
896.258
1408.25
1800.52
47.1194
118.087
35.3706
735.373
125.43
1631.23
31.7132
4829.81
2447.63
122.213
170.136
1971.87
5330.71
43.3939
43.1348
2426.38
65.2676
2988.09
61.0966
33.39
161.589
126.994
700.833
2129.97
3109.61
1869.17
6589.3
40.9815
5123.14
70.3994
49.4549
1438.14
1163.72
2878.37
417.917
547.179
685.422
4884.16
4479.62
63.6796
191.423
139.975
422.382
2845.52
301.453
43.9446
1760.88
395.469
264.408
41.4882
248.753
2347.08
3105.08
105.388
60.7674
43.2984
1138.92
1543.11
1230.24
1161.45
956.813
2373.65
822.609
920.216
31.6052
285.631
3875.77
1480.71
1043.55
1572.16
320.688
66.9733
288.113
240.42
325.917
908.761
464.663
2165.29
4832.41
47.9444
48.5889
298.184
41.8442
38.277
49.9048
57.0286
1757.65
1364.06
2181.77
140.291
2051.29
42.3554
514.446
559.654
2996.5
4518.82
542.411
1628.69
2653.8
3315.59
367.443
321.937
636.125
5599.72
41.297
2528.37
198.401
4089.72
32.2447
643.262
1117.91
1049.25
274.596
39.8855
37.572
1682.68
294.496
41.5481
1235.18
2210.8
262.353
268.767
3374.54
39.5864
37.8952
1614.07
1220.47
4897.42
3504.35
288.695
1149.08
3181.97
3548.02
130.942
176.842
3334.08
43.7657
913.831
42.018
435.811
1280.68
40.3788
99.7957
2898.62
41.0925
309.549
7203.51
1621.8
2028.41
37.8501
43.799
40.7724
1554.28
244.754
3046.4
2010.47
275.1
723.968
3097.55
490.954
34.9887
3099.3
3447.14
4622.01
2213.14
122.25
1673.9
167.665
3880.9
1216.84
3942.94
3865.87
186.484
149.729
104.319
40.5394
32.8434
66.4887
733.196
43.702
1598.86
217.143
589.875
59.9178
337.025
2022.63
43.3193
190.442
42.3833
650.859
524.27
270.989
2527.68
46.2169
996.759
207.62
2838.05
3522.17
207.083
43.1568
2772.2
318.194
99.9578
119.471
2192.57
653.278
41.3834
91.8789
941.942
1241.81
906.201
1102.8
83.7532
39.7572
1496
529.722
4208.16
42.3642
108.534
1340.36
1170.67
4140.03
240.097
374.955
46.3171
43.0305
3475.1
2057.95
94.4995
164.176
1276.78
749.962
42.6557
3714.66
225.333
122.988
329.907
298.133
39.4008
3275.13
1032.34
1417.4
524.686
6077.5
117.652
88.782
1367.64
1197.31
44.6689
1631.67
3020.29
3387.01
41.5121
724.372
3105.17
322.451
740.767
49.3773
151.148
195.705
1837.1
2002.22
1303.35
704.545
244.277
2240.63
5489.29
129.184
4288.8
5472.16
4866.11
252.093
626.588
3259.95
4446.34
214.739
980.52
1084.05
125.355
1917.92
2841.73
3129.59
3369.01
1450.63
115.53
1114.8
1288.22
42.2644
3260.92
4638.81
1085.89
629.176
791.232
970.002
53.5499
122.673
45.7865
694.38
7026.12
4688.75
4278.63
2073.33
1860.6
160.915
1970.13
1348.76
2716.88
455.321
533.41
42.3152
42.0523
2481.12
1125.86
3533.15
600.964
731.626
1141.06
189.415
1934.69
2608.94
1431.21
1104.32
3563.6
1484.4
1853.16
1513.41
543.435
4732.92
520.871
3891.04
4433.66
2528.6
3213.18
628.652
1307.16
2834.32
2307.24
1711.14
5342.21
5629.92
42.6207
4236.5
399.168
363.397
833.15
259.784
2738.1
803.764
4569.93
3697.28
3240.31
3818.22
176.157
1215.95
278.919
6982
1913.83
1249.97
3735.84
2475.47
4500.12
501.963
194.466
460.035
5062.29
618.84
2405.24
3609.25
5046.69
4265.21
3487.85
3915.6
604.867
5394.03
5626.47
5224.05
3081.11
2642.96
2547.34
3979.85
2128.35
2738.45
4896.33
665.155
2429.48
2772.3
3104.68
334.865
4826.25
2644.11
41.7503
254.938
3390.82
5213.07
4462.19
546.978
101.089
4304.31
585.154
1653.2
1612.89
3094.69
1118.1
295.02
4783.09
5011.24
1655.04
141.135
3563.68
831.577
3082.41
766.163
162.357
96.3706
4290.34
5356.28
5694.56
5394.36
5728.5
4757.49
4913.92
313
35.6063
3729.26
306.747
46.522
42.3758
4227.87
4389.79
4185.23
3695.92
5715.87
5611.26
58.7648
3595.84
6052.55
4366.67
5464.69
2981.13
3104.58
3082.81
2654.45
4653.5
2259.81
1266.79
5596.37
4620.59
85.6561
3578.7
5083.69
259.75
2124.39
2595.99
45.846
3260.61
779.533
297.402
271.51
1024.17
2047.39
2345.21
2344.03
4494.43
2044.72
3690.97
1000.53
1815.22
2183.33
3322.17
197.853
4186.13
2502.34
2606.77
44.1402
3315.99
129.893
830.946
3463.72
154.945
38.8089
4922.08
1629.24
5869.46
5421.8
3999.65
5478.5
546.481
43.6464
38.1961
2015.89
1976.83
29.4999
2245.66
502.599
842.018
260.88
2497.7
88.1671
31.181
1329.71
1106.85
46.3809
1542.17
234.693
214.37
237.883
223.739
587.642
3684.09
5742.54
545.829
3964.71
54.3989
275.952
3147.06
2410.62
56.2502
1476.81
1731.91
232.236
860.031
294.667
2495.17
45.3631
2972.02
567.369
6470.22
389.632
1976.65
5342.51
244.66
3650.45
238.253
6512.99
1305.73
1049.51
1401.75
1655.74
1305.07
5922.67
4890.21
619.161
568.19
2200.5
262.475
1504.59
479.976
413.945
1633.86
557.64
1445.34
1629.99
848.722
2432.42
1278.58
217.065
2064.6
220.956
1967.27
4140.12
2820.94
2326.81
693.218
203.363
235.296
645.281
3083.23
1363.24
5148.23
4785.8
3006.77
1773.79
396.271
1752.24
3711.86
646.023
189.974
127.531
132.406
2034.61
192.139
388.995
4470.99
649.266
170.742
3147.8
1708.9
2647.52
3254.46
2526.81
746.212
908.301
388.782
1907.34
2004.29
331.975
306.517
39.5075
454.916
56.1336
23.7062
21.8204
18.0943
18.8063
3067.72
11.2292
1137.19
64.1402
725.214
113.352
348.342
422.098
1119.35
2229.24
212.542
253.348
2400.46
2372.83
1311.95
11.8156
195.388
132.356
98.0745
227.135
184.255
3512.35
707.695
1071.86
206.302
269.043
698.673
21.1189
1261.55
1321.75
333.1
325.085
853.625
430.38
368.648
1513.82
1907.46
501.199
1096.53
171.333
499.167
679.003
803.829
1554.12
160.988
1765.57
265.176
219.431
685.483
12.3687
357.519
164.266
18.4489
2276.61
220.373
23.9824
104.609
1346.16
407.682
886.92
13.0178
13.7939
601.219
731.931
396.416
2056.17
1649.24
1943.65
77.4757
44.8367
15.0257
626.839
248.91
154.906
24.8589
58.462
764.417
289.986
261.192
1805.44
3126.46
721.704
802.844
219.296
243.077
1098.38
350.548
254.188
422.466
122.27
68.849
272.536
1609.37
659.56
780.443
10.5922
279.857
251.454
3027.73
2215.53
2189.8
558.637
260.9
456.527
415.042
609.994
11.9024
117.006
25.5884
48.7753
53.9219
10.6647
503.71
1786.75
110.405
1604.96
193.952
544.176
550.704
242.95
195.127
74.892
60.4756
616.055
172.073
339.688
352.562
9.67969
1835.5
1524.13
517.55
979.145
332.308
1241.85
663.196
527.573
142.201
1440.63
2054.98
1956.35
4.7222
7.95359
299.605
553.491
10.7668
84.4373
304.664
289.415
152.715
365.385
900.161
356.186
95.9983
13.115
1201.39
390.158
301.771
336.604
13.1212
13.1253
240.94
3019.05
2606.96
662.436
14.0083
13.4353
15.5214
162.828
3017.78
375.363
290.138
191.392
207.122
1680.49
340.06
173.448
833.979
341.091
58.913
63.0315
414.678
392.245
493.619
360.544
25.2503
82.1522
415.335
242.804
388.062
402.121
195.42
482.445
210.309
2604.65
2616.43
2502.94
244.211
167.176
323.35
267.99
2140.7
39.3495
12.6252
2063.31
164.158
369.103
4846.21
3229.21
726.331
159.88
1229.02
16.5524
571.819
108.694
215.88
159.938
162.403
162.081
48.0707
43.0605
37.7089
2023.43
1173.4
37.1224
762.257
41.9844
25.1787
694.406
578.993
239.94
209.686
190.115
26.461
296.1
827.327
590.606
624.585
332.752
173.794
400.041
347.407
86.1111
37.7867
20.2858
691.522
128.157
527.766
60.4586
139.608
165.335
147.712
315.036
847.204
2060.2
680.465
14.8635
326.116
311.856
49.3756
443.712
586.773
38.612
127.543
129.54
445.996
12.7867
287.3
408.349
217.335
1007.09
2589.87
2755.51
403.778
122.497
62.1558
318.371
269.666
440.513
311.733
19.4016
327.159
238.358
758.257
761.719
773.862
93.1133
1627.75
293.728
16.9025
19.64
351.11
43.7757
43.6809
72.1094
1641.22
119.448
56.606
322.63
309.317
156.963
332.164
379.455
184.444
188.804
40.7891
442.642
384.59
1751.17
512.629
15.2851
13.465
9.59775
2632.69
117.405
244.472
200.525
414.75
2068.02
606.576
597.874
320.825
3100.66
20.7528
273.944
189.263
6.00155
191.37
178.205
3869.49
500.586
1799.52
3359.47
524.11
1145.49
1325.35
13.6457
2981.88
2045.36
12.083
825.013
61.8793
707.829
175.706
123.176
111.231
897.153
4918.49
4870.18
195.418
4400.92
4.88501
295.66
159.557
503.351
234.83
299.298
3734.04
1043.9
3342.41
4290.69
36.5689
2106.7
39.5392
344.644
4562.92
877.626
403.232
1516.79
66.8152
92.5189
982.489
333.675
2375.05
1024.44
5057.2
107.788
226.807
2248.53
218.254
65.2016
599.288
236.688
17.3268
1113.26
515.296
217.723
178.079
3835.49
66.9218
3504.35
1349.93
586.565
151.508
504.338
2347.12
3425.81
623.476
474.622
370.206
3211.23
1210.13
120.145
1463.39
4807.22
2106.49
445.31
8.88376
4328.36
158.688
4065.35
4617.46
152.609
4466.93
50.8751
3307.05
84.8684
3492.38
3367.45
3606.97
188.095
386.592
187.551
141.398
9.65163
374.197
189.009
109.068
39.8639
50.6732
1748.54
400.408
2129.8
4668.58
3588.28
390.129
3926.9
3545.25
19.0727
659.062
2196.21
3159.14
3114.43
1000.64
2162.12
883.045
4655.11
4575.47
3743.22
1052.84
3152.3
250.27
802.286
1729.78
214.643
175.234
3956.15
4506.84
2786.71
3159.88
4561.68
4875.82
4171.69
2623.42
3258.22
4314.21
4563.53
438.223
243.819
486.393
723.521
60.8943
328.63
654.955
170.854
3399.9
3551.5
649.032
773.197
3665.15
17.4464
6.91698
1211.79
16.7435
2098.48
98.7365
1667.71
5119.45
123.687
141.334
4097.12
4153.59
4171
356.977
366.759
2785.47
3012.11
1488.75
3506.91
854.34
564.384
5018.99
2868.68
210.912
4370.89
271.48
1755.31
549.027
1524.22
237.836
470.228
3115.84
1457.54
3841.61
3629.16
3137.83
1942.4
380.894
4718.33
1210.52
3654.11
75.6242
97.0009
4452.39
3911.23
268.351
245.367
12.3357
4308.68
1674.07
4698.12
501.136
6055.82
8.67307
797.65
171.63
132.545
477.729
286.34
4563.9
238.17
191.068
437.933
62.1612
123.577
308.538
257.704
236.561
472.87
207.713
292.616
339.727
280.677
244.348
2396.84
4064.12
3843.13
65.4666
233.197
207.905
428.404
539.533
4302.05
4439.02
2815.61
4277.61
14.7509
15.7169
127.156
212.7
268.6
3191.65
88.101
821.633
47.9749
146.838
1747.92
257.317
285.594
566.597
3637.16
1276.5
2863.15
249.341
348.872
56.1652
147.235
183.879
117.402
78.7879
4501.93
349.331
269.341
238.45
15.7741
3345.32
563.717
2060.51
1227.66
324.051
467.409
2140.54
146.277
115.592
99.0681
340.098
3706.85
114.147
1199.26
410.056
185.233
256.914
515.25
83.3205
4113.51
413.001
329.471
931.163
256.082
23.2592
1840.58
2254.15
967.336
291.95
253.461
431.4
667.003
3890.62
346.225
253.985
1345.39
91.6968
638.792
544.098
19.3557
449.82
5174.15
358.007
7.59651
550.03
446.168
893.885
929.011
1464.25
168.715
1711.44
82.746
576.335
324.495
10.5262
883.851
10.3766
1084.94
426.396
696.522
1683.17
3161.96
4.67791
698.333
614.792
710.955
916.287
215.521
332.854
337.492
73.092
16.0398
317.49
480.306
3387.57
415.375
210.863
145.393
12.5155
319.738
36.9995
3760.65
2206.58
2890
2948.66
524.176
12.5012
263.466
129.567
2159.7
1301.29
854.92
307.671
315.798
858.344
15.3177
2711.12
1256.22
292.401
100.462
195.301
2655.9
612.048
4.42489
48.1856
1280.47
1377.69
568.502
180.033
964.028
92.6396
190.119
1307.12
78.7074
1174.64
1229.95
27.3809
19.1745
597.039
1406.81
327.754
202.907
54.388
211.275
205.602
61.6228
11.0222
351.35
2049.59
631.038
930.283
353.178
140.476
107.622
629.571
135.345
849.986
393.818
482.794
385.049
3173.39
2677.36
140.957
361.589
1027.66
522.286
411.632
124.027
190.985
562.936
396.726
15.1416
219.028
276.854
88.6839
341.501
2921.82
568.288
326.976
353.028
972.617
499.105
2364.23
1858.9
739.557
24.2075
995.135
3863.59
3438.78
160.266
232.964
424.155
909.637
386.279
26.2199
61.1596
1249.01
1141.67
662.893
152.466
3128.74
484.075
1439.99
457.356
295.013
345.292
296.763
84.4195
8.54282
144.975
378.98
525.586
8.45215
717.686
2517.39
356.598
1374.71
226.176
179.565
1514.76
985.932
848.513
4544.04
499.429
283.839
30.5098
455.834
820.162
854.852
931.59
1458.57
141.234
2340.66
220.184
102.101
2589.81
218.471
49.2877
603.137
466.934
248.854
2197.03
140.887
135.394
300.57
765.447
13.6468
480.423
273.979
367.11
623.489
33.4472
199.536
169.977
459.382
53.227
31.5353
1991.91
94.6656
296.56
2871.61
625.134
543.371
308.038
630.799
101.123
116.391
971.939
161.295
2735.33
1745.35
1410.74
1444.33
146.655
2682.7
20.0104
1649.07
2241.23
510.899
95.9075
245.401
461.167
207.334
2470.74
96.3895
1756.6
1283.7
158.202
315.865
383.813
626.241
167.583
180.849
1526.29
1429.83
110.906
1485.39
731.093
759.898
207.812
209.635
302.314
3.82285
1371.99
48.4569
54.0076
152.714
22.6543
22.2994
237.174
208.129
2502.09
580.504
601.068
420.476
197.128
137.278
3347.83
170.779
166.614
146.241
223.273
2751.17
1484.39
34.7069
1308.01
7.54034
424.15
462.109
49.2384
911.203
2178.11
1230.98
190.532
172.073
16.6755
144.963
212.153
404.626
523.424
226.476
243.07
205.441
336.592
2047.49
474.532
132.229
1630.14
2045.12
772.054
788.687
259.189
237.936
523.049
2433.34
240.235
67.3911
12.5325
17.2639
80.9094
149.363
368.483
574.224
533.588
406.233
17.6972
262.505
307.272
1990.21
662.335
705.909
2180.78
269.506
202.705
307.143
254.44
157.201
15.8381
494.236
2227.18
100.965
228.62
16.7994
62.3126
2146.39
252.381
620.121
657.34
1021.04
3417.39
3723.67
701.192
996.762
355.433
323.842
1955.25
43.5895
55.5808
643.718
19.0136
1442.79
772.123
319.787
448.141
968.852
104.895
239.357
971.988
683.496
482.515
209.463
346.397
391.016
382.622
841.316
258.254
91.6416
95.2442
562.101
445.636
76.3068
117.028
205.201
613.868
428.216
356.734
296.126
271.529
1521.37
801.561
374.255
267.103
251.671
2510.72
422.688
149.145
518.129
153.907
359.576
356.058
299.802
494.173
409.335
12.4214
136.653
37.1285
495.492
1193.21
725.844
1459.58
10.0202
10.6324
768.581
1958.14
46.5139
626.622
346.738
9.214
656.139
111.966
90.9553
434.445
342.358
1009.54
2466.67
111.941
601.153
163.346
20.3876
1063.48
673.266
3070.47
118.168
187.763
654.931
861.459
245.012
1772.53
502.281
9.91642
552.053
209.379
4.78592
806.233
816.361
1146.3
230.926
413.129
3570.6
3723.81
217.27
409.725
2455.11
2292.44
460.85
153.455
508.928
424.489
1110.09
583.473
40.3979
309.858
271.379
19.6381
126.946
894.955
1591.31
34.4105
2139.63
2713.12
8.38268
8.37123
1121.12
655.409
704.732
99.8441
1400.81
334.977
276.852
254.71
228.832
177.632
345.89
304.115
1205.03
918.869
3903.58
1681.3
1465.83
24.9644
182.141
393.628
315.921
92.4835
180.108
292.94
846.102
538.445
225.997
13.2435
14.2686
1991.06
81.5989
19.5822
473.721
1079.37
803.055
487.142
279.428
89.7264
331.898
16.4361
368.899
26.3887
26.8187
250.213
897.732
787.277
839.512
274.09
49.8047
933.881
948.362
487.938
163.801
734.957
593.338
259.069
999.522
369.114
274.895
1109.79
648.48
12.1422
13.5778
684.625
2607.46
134.562
291.025
14.3511
2456.48
663.05
149.332
138.638
1118.48
370.702
1738.73
2660.33
362.032
337.232
387.523
453.707
1100.16
276.769
30.6847
47.1278
770.333
2217.05
302.442
499.8
233.269
2879
246.314
22.5834
629.728
636.329
383.183
629.932
435.316
12.1714
866.484
17.6241
13.8211
505.795
235.441
925.319
25.2303
150.654
383.694
216.578
1765.48
264.047
72.4944
111.516
2571.26
828.829
828.598
3.70941
336.162
670.747
663.128
462.99
422.458
261.788
1376.78
11.8223
3537.33
52.4915
485.785
2122.1
1240.56
657.254
951.348
17.7638
1271.49
1600.41
1445.31
101.984
162.217
830.358
274.164
550.864
583.46
501.426
313.185
71.6216
97.2897
16.1486
128.464
1537.45
194.322
54.5946
13.4769
13.3528
331.499
202.497
362.062
869.602
1700.73
1989.72
340.47
690.295
1218.4
255.143
782.157
1087.73
1251.72
828.675
1741.46
1972.08
323.679
159.575
19.2764
12.222
1436.72
2211.9
463.428
53.4495
459.559
115.816
537.361
264.803
311.978
42.7904
45.9828
1234.7
1698.4
12.8845
289.961
192.107
314.942
57.8935
4232.54
36.0866
261.279
269.481
83.6316
868.505
475.775
632.993
347.843
14.6383
15.3458
32.7657
13.038
98.8491
13.3649
121.744
29.3996
522.99
461.428
936.247
516.325
26.9975
132.333
506.593
148.207
1633.18
12.7051
8.29638
324.809
384.761
210.802
824.432
74.177
521.025
53.0786
685.524
592.866
619.688
100.851
9.29487
8.57587
1502.43
212.154
560.883
929.76
597.794
669.53
148.85
200.009
11.6349
324.999
452.68
31.787
347.781
1692.98
259.146
748.686
694.309
2037.25
231.955
19.9322
364.748
1297.84
316.582
2599.89
233.581
10.5632
619.287
15.9137
16.5341
1279.38
3498.9
389.288
370.4
19.5682
8.99073
322.799
41.3737
38.2452
965.113
27.3511
35.3477
125.639
393.079
455.578
611.75
755.33
821.717
195.195
14.6129
399.382
393.12
2293.67
1982.47
27.1621
233.744
9.96659
1078.53
971.119
812.994
128.979
231.409
1091.81
15.1991
1946.75
2067.5
1828.97
1862.43
223.14
1628.21
3587.78
14.4164
17.1441
407.266
545.36
462.999
265.982
418.377
1574.61
116.627
645.176
921.201
8.57536
1260.84
728.004
280.25
2180.7
62.7826
494.852
143.315
910.711
92.7201
498.198
8.60087
1747.65
1181.78
1462.73
198.418
2096.29
13.3915
3.84364
205.642
44.1952
22.6202
9.58264
859.302
1083.83
231.032
16.8411
23.032
47.6583
110.296
19.3991
1876.54
316.457
343.338
9.28562
634.739
1005.01
1601.53
1921.26
13.3083
105.813
873.698
310.28
596.091
63.6822
2843.83
2900.86
845.418
65.3729
74.5678
545.979
17.4614
716.713
1311.34
696.799
480.373
17.9687
263.31
490.005
232.645
974.316
753.733
14.9455
1203.07
621.988
426.215
477.261
19.9315
17.8987
317.969
1050.41
1102.06
275.802
33.4655
23.7368
2690.21
1089.85