/*--------------------------------*- C++ -*----------------------------------*\
| =========                 |                                                 |
| \\      /  F ield         | OpenFOAM: The Open Source CFD Toolbox           |
|  \\    /   O peration     | Version:  2212                                  |
|   \\  /    A nd           | Website:  www.openfoam.com                      |
|    \\/     M anipulation  |                                                 |
\*---------------------------------------------------------------------------*/
FoamFile
{
    version     2.0;
    format      ascii;
    arch        "LSB;label=32;scalar=64";
    class       volScalarField;
    location    "10";
    object      k;
}
// * * * * * * * * * * * * * * * * * * * * * * * * * * * * * * * * * * * * * //

dimensions      [0 2 -2 0 0 0 0];

internalField   nonuniform List<scalar> 
77035
(
5.00913
4.69138
3.36876
7.98377
8.44134
2.70651
2.81365
0.965869
2.83758
1.13388
0.731402
0.712989
0.702996
0.690674
10.8341
0.647591
6.19145
1.34684
4.15844
1.67272
2.91648
3.7167
6.26864
8.44004
2.35935
2.70937
8.90302
8.67289
5.34724
0.655079
2.7331
1.59905
1.13575
2.21206
2.34252
9.24783
4.72586
5.41778
2.46448
2.58688
4.72174
0.710317
6.56648
6.1784
2.67441
2.9755
3.87403
3.51919
3.08103
7.52009
7.5674
3.18825
6.12193
1.62074
3.84569
4.422
4.42156
6.95892
1.99985
8.01123
2.83033
2.15283
4.16246
0.696419
2.59008
1.45323
0.655658
8.99124
2.49729
0.736035
2.0858
6.29795
3.44854
4.09405
0.726524
0.66269
3.91414
5.33903
3.04519
10.2736
7.40402
7.13753
1.19787
1.22038
0.820202
3.36634
2.3541
1.90983
0.853053
1.92481
4.99495
2.55457
2.44289
6.96453
8.66409
5.3302
5.16542
2.88804
2.45196
6.64729
2.85744
2.71098
3.24851
1.33029
1.42145
1.85623
6.69468
4.71657
4.62667
0.626295
1.97661
2.84311
8.32322
9.48256
8.85353
4.32232
2.69636
3.26911
3.05605
3.75348
0.626035
1.77028
0.673741
0.973104
0.692848
0.652345
3.68287
6.89476
1.43861
6.84512
2.24425
3.73781
4.5717
2.59764
2.42601
0.899381
0.783315
4.19672
2.43286
2.22031
2.63949
0.662819
6.94008
5.9092
3.65782
5.12233
3.55128
5.73996
4.87133
3.73928
1.56153
6.80561
9.20052
8.45676
0.61458
0.687899
2.43982
2.66462
0.637418
1.18722
2.92767
2.46323
2.28027
2.91188
4.72023
3.23003
1.71128
0.649439
6.68754
3.88048
2.98859
2.83123
0.633796
0.624965
2.38746
10.2213
10.8262
4.51731
0.653025
0.640267
0.684006
1.76239
10.7465
3.19346
3.41388
2.45982
2.24847
7.14939
2.95055
2.82008
4.72734
2.70971
0.88506
2.04568
3.86869
3.46673
3.68315
2.79873
0.75564
0.773867
2.39281
2.26762
2.75777
3.17948
2.38202
3.18981
2.65751
9.91229
8.94748
10.3999
2.72567
2.665
3.20276
3.07438
9.46662
0.428749
0.622653
8.10468
1.60604
3.05672
12.8961
9.33117
4.97201
2.31566
7.70186
0.709256
3.90524
1.22651
1.99024
1.69144
1.79725
2.36655
1.14269
0.908647
0.745267
8.23973
6.61911
0.664796
5.23799
0.929024
0.679252
4.29981
4.44986
2.71537
2.53907
2.16658
0.646974
3.23372
5.01957
3.36791
5.04236
2.54477
1.30816
2.6353
2.22656
1.36276
0.773932
0.580637
3.4642
2.19111
3.02564
1.10915
2.06529
2.36522
1.29527
2.43253
5.22511
9.52492
3.68739
0.599942
3.00081
2.81324
0.973216
3.20791
4.14605
1.36643
2.05384
2.40698
3.36103
0.604371
2.49922
2.7217
2.41929
6.33035
9.1305
10.2855
3.55622
1.60437
1.58462
3.33343
2.91166
3.4646
2.72666
0.580042
3.33649
2.73368
4.30755
4.32646
4.85797
2.31051
6.16091
2.98616
0.536895
0.630517
2.27588
1.28949
1.03715
1.5203
9.07036
1.59403
1.15756
2.57139
2.92988
2.00669
2.61928
3.20385
1.77442
2.00184
0.879174
3.3876
3.08592
10.6905
3.692
0.616021
0.616428
0.687201
9.80135
2.05384
2.55937
2.10133
3.46308
8.55067
4.06925
3.24959
2.88353
9.36479
0.573016
2.62156
2.4792
0.605411
2.43136
1.99181
12.9731
2.73257
7.98866
8.5051
3.0673
6.83442
7.35193
0.594805
9.02538
9.79665
0.60914
5.76193
1.38605
4.70427
2.20013
1.63353
1.55838
5.18778
15.5564
12.754
1.68101
9.99129
0.592892
3.38283
1.88489
4.85801
2.63223
2.85932
11.2365
6.01937
10.2437
10.0422
0.904238
8.8511
0.598791
2.38264
12.6693
6.18772
2.78431
7.78167
1.02886
1.09557
5.20656
2.85501
12.6076
5.9323
13.9088
1.60485
2.23038
9.41935
2.88075
1.37782
3.62927
2.11666
0.64268
5.31911
4.00858
1.40232
1.96548
12.2569
1.86365
11.7174
6.83803
4.02261
1.86519
3.28733
8.40663
10.8387
4.48397
3.79537
2.9506
10.4324
5.25731
2.51102
5.80423
13.1359
10.4798
4.82771
0.695635
13.7268
2.56793
12.8745
13.0026
1.89553
12.249
1.15907
10.8182
1.62914
11.3629
9.71377
13.2129
1.52172
3.88642
2.871
1.78966
0.6831
3.32779
2.75269
1.57047
0.950105
1.11937
7.7975
3.906
9.67836
13.745
12.8139
3.32898
12.1627
11.7516
0.645009
4.4923
8.52818
12.0683
9.93308
5.94836
9.34923
5.22076
12.7023
14.45
10.9142
5.41471
10.5596
2.60106
5.14487
7.79437
1.69225
1.93822
12.9251
14.1358
11.1048
10.309
13.6834
13.3479
13.096
10.1983
9.34358
12.4611
10.2861
2.91865
2.47093
4.35687
5.46951
1.58656
2.63701
3.91445
1.64177
11.6548
12.6348
4.19645
4.67692
12.3125
0.709935
0.690562
5.2373
0.585849
8.34296
1.87368
6.84321
11.6839
2.4023
2.10877
12.6758
12.6067
11.5594
2.50668
3.47562
9.82954
10.8995
7.01781
8.07844
5.19547
3.83159
12.1717
9.94875
2.68808
11.0828
2.97099
7.91954
4.8021
5.45095
2.52904
3.26053
11.7707
6.86701
10.8596
11.9298
11.2906
8.32384
3.08402
13.2038
6.15055
10.1681
1.4667
1.6858
10.9085
10.2299
2.80355
2.59769
0.647898
9.39293
9.0929
11.9481
4.21151
10.7049
0.685943
5.14626
1.9971
1.67004
4.35536
2.23984
12.755
2.8736
2.01066
2.91704
0.864887
1.94817
2.851
2.6004
2.94994
3.80302
2.42884
2.12206
2.54731
2.50305
2.42645
9.0915
9.57504
13.0522
1.26173
2.77043
1.91149
3.46678
3.96043
13.1983
12.5854
11.8237
11.7398
0.637129
0.646953
2.31284
2.76017
2.83317
10.7164
1.12695
5.0616
0.96959
2.47285
7.95788
2.19824
2.81722
4.44711
12.0696
6.41122
9.95934
2.02986
2.84753
1.31549
1.91756
1.48197
2.1433
1.68585
11.5071
3.49919
2.32231
3.11644
0.541036
10.5626
5.14939
8.55829
6.41364
2.39074
3.80969
7.58619
1.39433
1.19481
1.55173
3.38824
10.0395
1.66975
5.53505
2.78965
2.17631
2.49166
5.10178
2.02876
12.2651
2.3517
2.69431
6.19339
3.19084
0.603874
7.16309
8.48409
4.92496
2.63045
2.56442
3.42771
5.23514
12.5061
3.00713
2.44342
8.13431
2.23598
4.37426
3.92419
0.653465
2.86684
12.045
2.41747
0.633711
3.83291
4.14043
4.17851
5.71027
6.79314
1.71499
7.96888
1.97815
3.97393
2.89469
0.662187
4.77404
0.656397
4.76611
3.40217
3.72433
7.73068
12.0872
0.592889
4.70022
4.62225
5.0965
4.43062
1.73366
3.2627
2.83598
1.76035
0.595527
2.97909
3.25364
8.34207
3.5725
2.36985
2.23062
0.758771
2.6351
1.08156
11.4589
5.63666
8.77817
8.78453
3.60768
0.623787
1.96609
2.07433
7.87448
6.68566
4.98803
2.66105
2.97588
4.10787
0.620275
10.814
6.15642
2.6473
1.55835
3.23869
8.76266
4.66564
0.581253
0.79981
6.39916
5.79858
3.51566
2.27563
5.17528
1.43833
2.68853
6.47775
1.64118
6.31127
6.75793
0.840686
0.721428
4.05423
6.37959
2.66404
2.73309
1.08466
2.55842
2.74781
1.11951
0.631614
2.67571
9.31462
4.37406
4.5003
2.82294
1.48066
1.69831
5.15058
1.43358
5.15579
2.92509
4.16209
3.02513
10.0892
9.71972
2.58351
3.70908
5.33817
4.4598
3.89319
1.98706
2.18423
3.06616
2.43266
0.840903
2.35371
2.73777
1.97561
3.05931
9.32676
2.90684
2.77221
2.916
7.36603
4.37134
10.1112
7.62841
4.76164
0.785683
6.09834
10.5153
9.89713
2.04599
2.51803
3.11727
4.65332
2.95557
0.74762
0.949085
5.17252
5.90586
4.75779
2.50529
11.6472
4.1739
6.64654
2.78026
2.67469
3.05119
2.60459
1.74096
0.688312
1.35772
2.7755
3.59844
0.630978
4.22009
9.73067
2.36787
7.07874
2.95619
2.50291
6.88426
4.86395
4.75019
9.85395
3.37175
2.38014
0.810981
3.04106
5.34249
5.19946
5.37676
7.56655
1.92285
7.53081
2.60612
1.37741
9.50593
2.60516
0.80417
5.18287
4.40476
2.35137
8.29036
1.83851
2.101
2.83992
4.30938
0.655855
4.29331
2.34279
3.62844
4.33166
0.859005
3.11255
1.87554
3.25442
1.17744
1.09426
7.69867
1.82825
2.48399
10.0741
3.8425
3.8829
2.2654
5.62016
1.9032
1.86174
6.33456
1.94685
9.62183
8.98654
8.12432
7.63075
1.68752
11.4526
0.65469
7.05248
9.22574
3.30463
1.31215
2.51351
3.62032
1.85664
7.75449
1.71231
7.46964
5.85653
1.1971
1.55246
3.37026
4.06468
2.05992
1.92986
7.34057
6.53708
1.72935
6.25393
4.72136
4.6286
2.81977
1.9551
3.32015
0.56424
6.16536
1.03557
0.988462
2.26861
0.595406
0.657975
2.65996
2.12403
9.88589
3.9338
5.12194
2.2507
2.50908
1.66247
10.8695
1.76
2.59252
2.20132
2.20187
9.21171
6.14262
0.804792
6.92428
0.667054
3.42928
3.5314
1.12057
5.13129
7.41554
5.70771
2.05494
2.03546
0.6011
1.99117
2.67374
3.70908
4.61423
2.60396
2.63764
2.47607
2.34426
7.8254
3.21848
1.34685
8.74737
7.72402
4.36017
4.45222
2.67296
2.56802
3.77999
8.93486
2.41765
1.75558
0.619843
0.67453
2.07775
1.67822
3.27102
4.24376
4.67672
3.43029
0.702953
3.08253
1.18784
8.08231
4.28471
4.62006
8.19351
1.81994
2.52429
3.19458
2.47861
1.73752
0.635998
2.69882
7.60128
1.91878
2.46479
0.67199
1.47278
8.68964
2.20676
3.56668
4.06109
6.73484
11.7795
11.018
5.04315
4.53493
2.53248
2.9427
8.17099
1.38579
1.68007
3.77792
0.651325
6.53496
4.92314
2.75317
3.41915
4.63505
2.31958
1.95361
5.38639
4.35162
4.13378
1.839
2.48287
2.88267
2.80571
4.4901
3.01398
2.05928
2.04118
3.35834
3.89378
1.07013
1.18496
2.17638
3.50964
3.92455
3.22721
2.78679
2.95402
6.86399
4.68925
3.66019
2.67568
2.60129
9.04348
3.20496
2.00306
3.68214
1.82434
3.05695
3.25662
3.12968
3.17759
3.19094
0.653614
1.50962
1.13988
3.9927
5.94631
4.92946
6.45267
0.668122
0.670688
4.46964
8.56812
0.924572
5.06553
2.87165
0.67966
3.93025
1.34969
1.30093
3.2862
3.05431
6.64315
10.2396
1.53395
5.50612
1.64747
0.883416
5.77353
4.7412
8.67948
1.67265
2.19994
4.27147
3.62121
2.0418
8.00845
4.06353
0.693819
3.91716
2.09499
0.615792
4.05968
6.60386
6.36188
2.06514
3.30761
11.7792
11.4618
2.32153
3.71079
10.0454
8.24809
3.22604
1.92719
4.05355
3.38557
5.63176
4.5133
1.6396
2.89568
3.09677
0.660522
1.18146
5.30998
9.31445
1.06363
9.39297
8.53392
0.718452
0.651503
5.61878
4.48672
3.80219
1.54152
7.09306
2.22255
2.26267
3.09513
3.04766
1.71353
2.47438
3.02552
6.21557
5.76344
8.58307
7.58944
7.63005
0.554385
2.44395
3.15756
3.48077
1.43667
2.46467
3.28817
5.44314
3.81321
1.90627
0.646939
0.630523
7.81976
1.60856
0.873703
3.67793
6.00039
5.52369
3.53454
2.96886
2.00451
3.42325
0.646408
2.46843
0.749077
0.899606
2.37269
5.56668
4.75759
4.41552
1.36905
0.977084
5.51639
5.39732
3.76249
1.63137
4.42904
4.49747
2.51843
4.90232
3.46808
2.8656
5.3444
4.67612
0.69991
0.731443
4.72099
11.5804
1.48161
2.54848
0.578932
9.96448
5.22906
2.55685
2.31737
6.71273
3.31386
7.07086
9.66472
2.70418
2.30789
3.72185
3.19543
5.80449
2.14561
0.957124
0.916561
4.06038
8.18975
2.5708
2.8581
3.0039
10.0714
2.12754
0.898929
3.86659
4.03687
2.75418
4.31172
4.78989
0.620584
4.78463
0.608884
0.650885
3.50112
2.68822
5.69187
0.665621
2.15204
3.88496
2.63247
7.25859
2.92963
0.761652
1.34781
8.7147
4.70796
4.15013
0.599657
2.54392
5.09205
3.79919
2.82915
4.23946
1.9166
7.47061
0.640383
11.588
1.31929
2.96626
7.65346
5.89253
3.45683
4.41458
0.63774
6.49011
6.54868
5.67016
0.883406
2.24404
4.8191
2.93861
3.56706
3.55054
3.90942
2.4132
0.862768
1.48312
0.604228
1.62189
6.84461
2.26802
1.07923
0.645965
0.610859
3.1821
2.58057
2.41089
4.33802
8.1024
7.72637
2.96177
4.72549
7.35568
2.926
4.30274
5.76034
6.8806
4.43809
6.88033
7.15085
3.4097
2.17923
0.800721
0.626583
5.07047
10.0553
3.4133
1.03859
3.20028
1.63139
3.29157
2.19969
2.54355
1.12673
0.871066
6.47407
6.37136
0.641458
3.31096
2.14112
3.07768
1.17983
11.8195
0.935327
2.93645
2.15371
2.08163
4.63054
3.67115
4.18057
3.38285
0.814776
0.606485
1.12155
0.655877
1.72787
0.648746
1.31549
0.745198
4.01463
3.38764
4.58175
3.58658
0.671244
1.94467
3.24135
1.96175
8.22307
0.630967
0.6618
2.93327
2.65201
2.53284
3.58277
1.09829
3.39662
0.674619
5.32954
3.03655
2.82184
1.82564
0.700818
0.658872
6.78652
2.19043
4.26836
6.54937
4.17986
5.58806
1.72778
2.98631
0.669293
3.4893
3.35287
0.552248
3.26037
6.96811
2.19496
5.17157
4.70482
9.41322
2.21036
0.626344
2.67154
6.23447
3.69749
9.48053
2.8116
0.658149
4.07297
0.616899
0.620531
7.22399
9.94173
3.31
3.53581
0.688152
0.686586
3.0212
1.35574
1.26711
4.77904
0.727408
0.798435
1.91372
3.13337
3.82425
3.7412
5.02783
4.9851
2.05256
0.647951
3.44167
2.11278
8.43883
8.87467
0.932154
2.39113
0.672844
4.90592
4.7729
4.96996
2.31063
2.75668
6.0889
0.522045
9.06611
8.74175
8.10844
8.87919
2.75863
6.13688
9.85592
0.632325
0.646348
3.26662
3.87905
3.39256
1.71101
3.46564
6.47717
1.76789
4.25681
4.82012
0.709585
8.11052
4.87489
1.89591
8.4368
1.64293
3.25243
1.69521
4.49865
1.50883
3.69711
0.711262
6.70021
5.94394
6.08833
1.32797
7.97141
0.656205
0.5769
2.00262
1.25711
0.721794
0.683663
4.59912
4.48636
2.73011
0.608852
0.625969
0.916982
2.0153
0.691382
6.96239
1.99882
3.07741
0.714831
4.64275
5.83902
7.65727
6.91811
0.637509
1.36356
4.7762
1.18172
3.62694
1.02972
8.6893
10.2196
5.24043
1.31621
1.79095
3.42041
0.60759
4.18782
6.51363
5.04125
3.86836
0.779748
2.11669
3.74453
2.74635
6.03793
5.38828
0.646674
5.75118
1.94011
3.51599
3.74761
0.773352
0.637627
2.78433
6.06667
5.85319
2.61853
0.850256
1.03988
8.85458
5.19656
0.664246
5.85822
11.8301
3.46083
6.44141
0.816061
1.01854
3.21099
2.19407
7.07181
2.40035
2.03346
2.93825
1.81954
4.08336
0.633707
2.67077
5.44422
1.03016
1.92208
0.659194
0.629944
0.643355
10.4341
4.03394
0.694714
9.48391
0.624681
0.619334
0.606954
6.07283
8.12002
7.38469
8.11938
9.60025
3.22724
2.12946
0.868678
0.775538
3.73653
5.37425
0.62084
0.60383
0.57181
0.7909
6.43404
0.619241
0.693924
2.67818
3.03001
3.80745
6.35331
6.25397
1.46006
1.4926
3.20177
0.699878
2.0007
1.80286
0.609706
1.57292
1.10135
4.79697
0.619372
0.64804
9.42916
4.65139
4.19409
3.88805
4.0819
3.07067
4.30639
4.32413
0.77181
1.90669
1.5081
4.08397
4.09188
4.00888
2.28908
4.02116
5.10093
5.88886
3.73321
2.64251
5.12831
0.719013
0.962972
1.84369
2.51994
5.68235
4.2864
3.96286
3.90548
3.90063
3.77641
4.03979
10.9153
3.76559
2.06637
1.13948
1.58602
1.16657
1.53935
4.20282
0.695423
4.78593
8.0289
5.86571
2.00795
7.94607
7.12305
3.29289
5.35863
0.675861
0.828723
0.586504
5.67837
1.89516
4.06306
3.91779
4.44695
0.61646
1.14113
0.583951
1.83737
1.40362
7.1273
0.563878
8.46579
5.56211
1.335
1.64166
4.76357
9.22314
0.645595
0.636333
5.64976
0.894165
5.99693
0.844963
0.550795
1.33789
1.08191
2.42005
5.08782
6.12318
4.64212
10.08
0.632025
8.41255
0.951974
0.799274
4.70054
4.15473
6.40741
2.33842
2.74194
2.88255
8.48688
7.7915
0.807303
1.30835
0.949379
1.90721
5.88901
2.44331
0.63328
4.87085
1.8747
1.62504
0.645523
1.49743
5.24517
6.21942
1.19338
0.861072
0.660743
3.55207
4.53726
3.70645
3.76705
3.49351
5.75063
3.19272
3.33273
0.563215
1.58231
7.52615
4.53289
4.09796
4.26653
1.93855
0.809148
2.05361
1.63924
1.9697
3.28068
2.64514
5.18437
8.41464
0.698349
0.702938
2.14979
0.641228
0.685849
0.706457
0.904855
4.79593
4.37848
4.37513
1.13317
4.60338
0.590895
2.74507
2.46963
6.14746
8.01441
2.54521
3.76373
6.18226
6.76083
2.09436
1.99887
2.95415
9.70047
0.627295
6.21004
1.41477
7.61897
0.516375
3.01983
3.70442
3.84463
1.49403
0.588826
0.607332
4.83222
1.88044
0.641963
4.21772
5.19429
1.99822
1.97175
6.54689
0.702825
0.725701
3.95925
3.71944
8.61094
6.7614
2.00374
3.17433
6.4195
6.72028
1.58959
1.73327
6.78591
0.692427
4.16785
0.647425
2.01617
3.99358
0.638743
1.16444
6.53559
0.631061
2.05597
10.3539
6.55491
4.73256
0.599532
0.591756
0.617263
4.0753
1.69849
7.00576
4.85474
2.38099
3.17946
10.0978
2.75916
0.549373
6.53979
6.93817
8.10279
5.2183
1.28084
3.45705
1.33246
8.31466
3.76034
7.08756
7.71809
1.34515
1.31387
1.00132
0.601612
0.572947
0.906339
3.47856
0.671855
4.18913
1.85922
2.88539
0.735709
2.25037
4.96733
0.733929
1.24256
0.636607
3.39314
2.51454
1.89268
5.60966
0.693288
4.38637
2.06538
5.9194
6.93996
1.54832
0.642577
5.84482
1.6523
0.974658
1.05137
5.96658
3.27274
0.632184
1.10856
2.81232
4.05196
3.23186
3.9029
1.01773
0.661532
3.98493
2.61514
7.72024
0.640809
1.06748
3.6663
3.70254
7.08171
1.50796
2.15945
0.800023
0.793784
6.87991
4.86227
0.966781
1.00734
3.96466
2.94455
0.692733
7.0428
2.0078
1.4043
2.17265
2.04723
0.599166
6.41673
3.61603
4.21507
2.79324
9.76651
1.1772
0.949236
3.66341
3.64512
0.647783
4.49654
5.75426
6.7509
0.62751
3.30463
7.09483
2.25986
3.05442
0.700234
1.30018
1.40275
5.04648
5.09811
4.25021
2.52197
1.7504
5.14878
9.35282
1.22304
7.54517
8.94153
8.18047
1.88931
2.49518
6.49047
8.31066
2.16901
3.44899
3.64498
1.46623
4.52049
6.45616
6.41699
6.33754
5.70418
1.06852
3.57258
3.6036
0.636494
6.81446
8.58805
3.91834
2.40913
2.57826
4.48797
0.620436
0.950678
0.688287
2.15766
10.5756
8.01893
7.31397
5.07729
4.96218
1.15038
4.90194
4.25582
6.21587
2.46716
2.62944
0.65288
0.645258
5.49485
3.41499
6.94524
1.88916
3.10711
4.14806
1.4001
5.45554
6.805
5.64231
3.91023
6.91155
4.01345
5.08255
6.02131
2.74164
8.17014
2.19303
7.03313
7.5157
5.9974
7.21385
2.83521
4.18972
6.01515
5.60582
4.31438
8.4335
9.08697
0.658692
7.48897
2.27263
2.23685
3.19564
1.91623
6.24768
3.97633
7.23529
7.54426
6.43809
7.4198
1.41284
3.94636
1.75756
9.42545
5.31399
4.03965
6.86061
5.1383
8.0662
2.53693
1.75911
2.35999
7.68001
2.90042
5.72908
7.24403
8.28544
7.56898
6.62795
7.01327
2.87363
8.98958
8.77563
8.48788
6.1143
6.15252
6.07799
7.80825
5.13421
6.09108
8.07668
2.96727
5.4729
6.05067
5.95205
2.04078
8.25084
5.7969
0.660376
2.23369
7.14514
7.64197
7.58578
2.68417
1.18186
7.68891
2.79792
4.87655
4.66246
6.63291
4.2966
2.14139
7.94797
7.95437
4.68837
1.26552
6.86277
2.72801
6.14613
3.48893
1.24375
1.00038
7.44346
7.95544
8.81882
8.89967
8.82102
8.14162
8.26352
2.07947
0.608958
7.70587
2.16143
0.708876
0.636571
7.26244
7.54184
7.52302
7.23339
8.21765
8.57702
0.887864
6.63475
9.51648
8.15547
9.17212
6.19879
6.47319
6.62007
6.50109
7.58958
5.31014
3.95744
8.86651
7.6193
0.883627
7.52317
8.59331
2.26088
4.57563
5.35596
0.771052
7.17772
2.52885
2.14586
1.9943
3.04002
4.84569
5.31013
5.51752
7.90328
5.30712
6.83025
2.91208
7.64484
7.65489
6.35861
1.83148
8.15197
4.71583
6.19067
0.64911
6.51013
1.3719
2.49954
7.59126
1.39081
0.727269
8.19292
4.37249
9.48098
9.09293
7.92879
9.1086
2.30446
0.605394
0.619856
5.14508
5.32171
0.57318
5.75035
2.56014
3.55389
1.78721
5.62212
0.945596
0.601683
3.55943
3.12402
0.700179
4.46042
1.82939
1.74426
1.84049
1.70527
2.34132
7.25108
9.35859
2.38617
7.635
0.754147
1.46858
6.5153
5.18607
0.701875
4.2944
4.70295
1.73714
2.84894
2.04139
5.94412
0.690186
6.41504
2.59361
9.54551
2.41369
4.91144
9.00058
1.85267
6.99155
1.72617
9.86223
3.94687
3.85617
4.23874
4.36189
3.96981
9.04238
8.57709
2.49711
2.94101
5.90454
1.88711
4.12833
2.58714
2.39705
4.72124
1.99349
4.0227
4.75835
3.03945
6.00998
3.5859
1.59605
5.67939
1.87506
5.00215
7.53035
5.33147
5.94166
2.22107
1.502
1.68073
3.18087
6.84825
3.61733
8.85956
8.84165
6.94428
4.96034
1.95099
5.23109
7.2621
2.21931
1.56897
1.33521
1.27401
5.07999
1.63855
1.87529
7.90655
3.20407
1.54447
6.91978
4.65761
6.00327
7.14633
6.06332
8.33485
8.59925
6.28447
13.0516
13.3021
4.7385
4.74308
1.4186
5.13816
1.66242
0.894463
0.838335
0.658344
0.671759
18.0657
0.459138
14.2484
2.10513
6.18238
3.19418
5.07981
5.2699
10.546
14.1927
4.17887
3.78792
14.9289
14.4066
7.82307
0.474444
3.28778
3.00066
2.05423
5.3646
5.05647
17.5824
10.3113
8.23955
4.85238
5.79384
7.09325
0.902035
11.294
10.338
6.51012
6.858
7.83286
7.98346
6.8533
11.7723
11.9521
5.72712
9.63304
3.51031
5.02169
8.31446
7.20096
11.1734
3.24547
12.3834
4.98043
4.01988
6.39043
0.503723
6.06533
3.21725
0.668444
14.9842
3.28442
0.867383
3.1313
8.81335
5.35575
8.82937
0.641361
0.546331
6.3815
8.11198
5.96142
17.4676
11.1965
11.542
2.23512
1.42553
0.799591
7.01494
4.82091
2.80794
1.08392
1.69215
6.10899
5.77048
5.24695
10.6641
13.5784
7.34788
7.0358
4.26937
4.56192
10.4249
4.44798
5.60106
4.25326
3.0913
1.7916
4.30174
11.0541
7.30722
6.64139
0.513693
5.04335
5.14384
15.1979
15.9361
14.6874
5.87827
5.22811
5.94207
5.92799
7.16572
0.487475
2.70357
0.899449
1.48285
1.52221
0.456599
4.56487
10.1739
2.6902
12.3405
2.82869
6.36857
7.24428
3.70664
3.3463
1.46206
1.50286
5.47024
3.97025
5.20482
6.18562
0.445868
11.8878
10.5466
6.56399
8.25622
4.46353
8.51729
7.27347
6.20202
3.11438
10.7735
14.9932
13.5047
0.497336
0.457799
4.64427
5.23278
0.455842
2.40425
4.46479
4.04483
2.80127
4.41574
10.5013
7.0663
2.72772
0.519509
10.1338
6.05478
5.0577
4.94832
0.500628
0.479104
3.82844
17.8262
17.8779
7.7945
0.553536
0.559427
0.661893
2.97433
18.3546
6.4568
4.54923
3.34138
4.28078
11.2494
5.1234
3.81463
7.85185
5.68932
1.62641
1.88192
5.70411
5.935
6.452
6.00927
0.833291
1.36781
4.72628
3.69066
5.33594
4.04482
3.31979
6.99039
3.94711
15.3485
15.1412
16.4991
4.14618
3.83597
5.50225
5.13653
16.7382
0.86145
0.490841
13.2344
2.98993
5.88509
22.53
17.5136
7.84441
3.28638
11.5364
0.671412
6.26119
2.03443
3.81781
2.9775
2.90799
3.16006
1.83424
1.63615
1.19256
14.1126
10.1198
1.01722
7.72969
1.33699
1.05508
5.26209
6.00968
4.85288
4.09194
3.16359
0.995024
4.78116
7.77658
6.81687
6.37075
5.6859
3.56774
4.26687
3.35101
2.36163
1.19123
0.802963
6.38274
2.66246
5.30871
1.96593
3.5211
4.12721
3.08186
6.30241
8.67634
14.7603
5.89481
0.560685
7.03176
5.34324
1.61761
5.5317
6.8392
1.03071
2.96567
3.08134
6.62347
0.535182
3.32356
3.4832
4.31771
13.501
14.607
16.7077
4.9612
3.09252
2.00759
5.36958
4.75326
6.28301
4.8573
0.820338
6.41644
5.69579
7.29844
7.78027
7.58255
2.52069
10.7363
5.25532
0.56992
0.955189
3.95223
1.5905
1.08031
1.90921
15.1393
3.57127
1.85586
4.02312
4.94684
3.17412
6.51606
7.28022
3.9879
3.79666
1.49539
5.06781
4.13763
22.5951
5.3971
0.560411
0.618241
0.438261
16.2147
2.3066
3.59619
2.87859
6.19405
14.7059
5.2419
6.17842
4.97795
16.2686
0.818342
3.14274
4.5218
0.549848
3.95658
3.05864
20.8423
5.36867
13.1898
14.6755
5.02158
14.9122
10.8177
0.541919
15.5266
16.4745
0.507552
8.60777
2.30433
8.59625
3.4903
2.54409
2.27851
8.45747
27.4736
22.2386
4.03934
17.9843
0.487653
4.411
2.60502
7.36572
3.59773
6.10568
20.3629
9.7631
18.2735
19.1798
1.38192
15.3072
1.04819
4.53371
23.5348
9.16491
4.87878
12.2387
2.04456
2.64227
7.86958
5.14351
19.1786
9.25622
24.1506
3.26444
2.93078
16.2246
4.86574
2.30621
7.26567
3.50966
0.822249
8.3556
6.05439
3.77632
2.48817
20.0282
1.99993
18.7872
10.7277
7.01219
2.78309
5.94079
14.127
18.1857
6.70011
8.87891
6.26487
18.0856
7.21108
2.73694
10.7163
22.4504
18.4579
6.95212
0.433957
23.7614
3.35997
21.7036
22.0522
3.23881
22.2157
1.70519
16.5682
1.97149
19.5088
14.9108
22.5477
3.46399
4.99431
3.9267
2.88557
0.431908
6.04089
3.41822
3.06504
1.38809
1.51714
12.0699
6.36393
14.9488
24.4157
21.9091
6.19627
20.1675
19.8812
0.684582
6.73551
14.0389
22.171
16.9455
9.06306
13.6392
8.7287
23.6637
25.4875
18.8396
7.11142
18.814
3.67024
7.66774
12.9734
4.05508
4.10301
21.5875
25.0817
17.1888
16.7981
23.8544
23.0887
21.0737
16.5831
17.2819
20.5325
20.5438
4.97278
3.22033
9.23812
11.87
1.66339
4.09128
7.32576
3.05908
20.0629
20.1115
9.78855
11.4408
21.4376
0.732898
0.47422
8.57577
0.598963
14.4564
2.6258
12.2181
22.0515
2.90899
2.90162
21.7833
19.3909
20.1572
4.11689
6.11483
15.7612
17.9487
11.8702
14.3453
9.57494
5.08328
21.5295
16.866
4.54084
19.1907
4.94351
12.7905
9.97619
10.7481
5.21472
5.86683
20.1027
10.6382
19.0227
21.1147
18.7893
12.4619
6.94108
23.1459
9.41165
17.568
1.6943
2.64144
19.2046
17.6649
5.34299
4.37963
0.515644
16.7226
13.4382
20.7386
9.34577
21.4894
0.435715
8.05583
2.82578
2.78721
6.10589
5.12705
22.3136
3.90214
2.96387
5.63838
1.31674
2.93831
3.70234
4.75716
4.86667
5.26846
3.96594
5.26465
6.42472
3.73036
4.8291
14.8384
16.6571
21.8994
1.85104
4.20621
3.40557
6.39655
6.40196
23.1163
21.8773
20.3203
19.3994
0.57473
0.613447
2.62475
3.81125
5.49638
18.3119
2.05721
7.13115
1.43117
3.3385
12.5423
5.02458
6.15734
7.33111
21.2499
9.70207
16.9953
4.15728
6.31548
1.56304
3.09719
2.07512
2.79193
2.17826
20.1282
5.86283
3.54479
4.85289
0.586195
18.1194
8.04399
14.1662
10.1522
4.99713
4.90296
14.3999
2.88111
1.60493
2.81116
5.89722
17.672
3.32368
8.97281
5.93787
4.44053
5.39447
7.62457
2.52505
21.3227
4.65854
5.85284
12.9706
5.4912
0.86276
11.7675
13.6743
7.7328
5.81098
5.3429
5.36016
7.7784
21.9282
5.73388
4.70449
12.8418
2.40555
8.3677
7.17779
0.733493
4.90137
21.0235
5.24137
0.483872
7.61006
6.57684
6.26649
8.57913
10.6766
2.89181
12.6187
2.22568
7.03317
4.74526
0.44099
8.37233
0.43834
7.45383
4.58648
6.40645
12.0757
22.0426
0.498884
7.62917
6.40725
7.40976
10.0415
3.98555
7.04207
6.44651
1.99935
0.569807
5.30662
6.84871
14.3441
5.0354
3.20728
2.95073
0.475989
4.41449
1.38597
19.3472
13.2152
15.2869
15.2447
5.77722
0.5062
4.96432
2.67157
11.4419
9.37809
12.0067
5.57917
5.79026
6.3185
0.601338
17.748
9.41449
3.48361
2.79592
4.46124
14.6324
10.1449
0.494618
1.25594
10.6561
9.08304
6.96052
3.97542
10.0648
1.73026
3.7899
10.292
2.64577
9.85851
9.90396
0.83326
0.811688
7.12508
9.25666
6.2077
4.87421
1.75972
3.65555
3.77215
1.4175
0.467588
4.05955
15.3483
7.90037
7.93707
4.71074
3.06258
2.82033
10.9844
2.53444
11.9049
6.64499
8.54843
6.91952
16.6213
15.6241
3.01716
5.8898
6.63061
7.8078
7.67568
2.89377
3.76303
7.17127
5.21583
0.663785
3.68397
3.39134
2.48254
6.26268
15.6982
5.24022
3.85978
5.01872
14.7028
6.88402
15.7083
11.7053
7.85257
0.81121
9.39807
18.0872
17.8288
4.2485
4.78148
3.93793
7.87741
4.7054
0.841457
1.9512
9.78335
10.0171
6.58175
3.71914
20.8891
6.53782
11.053
4.25604
4.93029
5.19636
4.15344
2.17872
0.440552
3.03565
4.76359
7.523
0.477717
5.30528
17.0781
3.16744
11.6029
4.17069
4.16851
10.8669
6.78086
7.51416
16.5547
6.79435
4.86041
1.25507
5.40807
7.66523
7.50989
7.92135
12.439
3.30301
11.5015
3.53953
3.01193
15.6914
5.22837
1.24014
7.92265
6.75467
4.77918
13.6
2.86925
2.98338
5.02562
6.92247
0.555136
6.85532
5.45515
7.13872
10.0807
1.22753
4.71487
3.18208
5.86846
1.44819
1.24069
12.5402
2.22634
3.5729
16.845
5.41395
5.66617
4.56545
10.5045
3.22946
3.49807
10.0497
3.61976
15.3241
14.5546
12.5932
11.9205
2.71507
21.3297
0.753454
11.3146
14.1945
5.76235
1.84867
3.30441
6.63456
3.79335
14.4794
2.16236
12.5519
9.19466
2.29715
4.32845
5.49151
6.28199
3.0244
2.73257
11.3726
9.55945
2.69876
8.85018
7.30193
10.7099
4.56835
3.39963
5.49399
0.50002
9.28702
1.67974
1.76912
3.56898
0.802618
0.85109
5.07983
3.88207
15.2788
4.89783
7.99542
3.86973
3.63515
3.41475
18.3662
3.78544
3.85744
3.13162
3.62957
13.5411
9.76365
1.24953
10.6419
0.467607
6.00142
6.20715
1.87816
7.98996
13.4083
8.27252
3.80596
3.56187
0.62724
3.2278
3.91669
6.26623
7.06856
3.62473
3.96384
4.26501
4.15679
12.6134
5.39874
2.34226
14.9541
12.569
9.45376
6.17207
4.25293
3.9664
8.57665
14.0293
5.1732
2.01426
0.499333
0.690809
2.17127
3.12593
3.85518
8.84861
9.67242
7.80698
0.746352
5.18143
2.98053
13.0181
6.67236
6.6939
12.4141
4.24567
3.91502
5.01124
4.11155
2.58492
0.632571
5.45392
13.5702
3.24253
4.07086
0.650108
1.55376
14.2585
3.0484
7.80374
7.88982
10.3504
21.2042
19.3414
9.24925
5.77976
5.41682
5.35422
13.7806
1.53486
1.65636
5.60369
0.735121
9.8827
7.26934
4.86054
5.40803
7.38536
2.8895
3.79901
9.03305
5.51878
5.88996
3.58043
5.39802
6.12981
5.12804
9.34167
4.63745
2.5511
2.68416
6.57369
7.42889
2.15557
2.75509
3.5006
7.13053
6.10339
5.65625
5.59789
5.691
10.5898
10.1236
4.945
3.83879
5.25597
15.1229
5.10815
3.70648
5.88732
2.44849
6.46207
6.47592
5.45687
5.80686
6.25594
0.507128
2.12203
1.50392
7.3349
8.03345
7.71512
10.2897
0.424437
0.45526
8.73012
13.5163
1.45127
10.5825
6.36173
0.437357
6.97519
2.50936
2.43838
5.14567
4.59564
14.173
16.7569
2.82202
7.71053
3.14446
0.895163
12.1002
8.10596
16.3723
2.31417
3.47836
9.39646
6.55667
3.85035
12.9177
8.57997
0.475971
6.96675
3.82046
0.501334
7.26919
12.9942
9.68284
4.2585
6.49418
20.4114
20.1791
3.63628
7.24446
17.6577
11.7283
6.14423
3.09223
7.13475
7.50879
8.41476
7.3036
1.31785
5.42312
5.68547
0.815234
3.10395
7.48215
20.1053
1.30361
15.5886
14.3479
0.452483
0.450862
8.79847
10.4151
8.09642
2.99742
10.7161
5.11524
4.98034
4.53157
4.43858
1.79583
5.4141
6.48201
10.1859
9.13182
15.6675
12.7279
11.7238
0.925485
3.8034
3.72376
6.21131
3.01289
3.8063
5.13158
12.1925
8.83424
3.73319
0.533755
0.582038
11.8661
2.72825
0.827891
5.65605
8.65363
7.70975
7.84867
4.23972
2.00708
4.48759
0.667064
4.69056
0.816195
0.936392
3.82815
8.06247
9.71449
9.06178
3.73895
1.19502
8.36287
8.41764
5.17098
2.21197
8.51063
9.27401
4.63663
6.9369
5.73747
4.15892
8.68413
6.26596
0.465474
0.613189
6.73502
18.5175
1.72265
4.94292
0.570193
17.8681
6.57016
3.8499
3.41862
14.773
6.93035
11.5668
16.8205
5.59952
5.49288
6.92423
6.6917
8.93802
5.43283
1.29855
1.27386
7.69181
14.1662
5.12369
5.95084
4.42996
18.1041
3.29071
0.738154
5.19927
9.2284
4.14635
6.02814
6.95974
0.505245
7.5775
0.631548
0.575902
6.52804
3.11819
8.87678
0.886752
3.40261
6.42367
5.06901
11.4687
4.95016
1.94003
1.93029
14.8199
7.14209
5.55393
0.509082
5.82135
11.1018
8.63054
6.92444
6.78741
3.57302
16.9727
0.483306
19.9511
1.97937
5.8365
12.5497
9.36155
5.76413
7.24228
0.649731
9.80898
10.1567
8.30069
1.41115
3.40947
7.68692
5.63465
6.4369
6.79095
8.103
5.22569
1.2655
2.54667
0.611629
2.47195
10.7047
3.51528
1.51
0.517767
0.514686
6.46529
4.60843
5.48943
8.39224
13.0763
12.5608
6.9875
9.51148
14.7978
4.88273
8.79656
8.86959
10.4405
6.94271
12.1849
11.8434
5.14124
3.54467
0.656089
0.499528
10.2103
15.7447
8.05203
1.76084
4.97234
2.41307
7.72595
3.77371
3.66253
1.80674
1.38953
9.82826
10.7035
0.517407
5.34798
4.21214
4.76575
1.68537
20.049
1.45118
4.40037
3.48556
2.44967
7.08845
7.0732
6.37856
5.4954
0.580728
0.578242
1.29766
0.52665
2.84864
0.525806
2.82039
1.26945
5.36096
5.84887
9.2659
6.46036
1.07748
3.16018
7.19401
3.24791
14.1954
0.51338
0.475486
6.09793
4.3628
5.36785
8.04428
1.72333
8.13299
1.65883
10.8529
6.99364
6.14611
3.12623
0.443781
0.479646
10.2754
3.80851
7.47835
10.5687
6.56601
8.75119
2.02727
4.2761
0.439869
4.97656
5.35874
0.968932
5.22204
10.7833
3.93927
11.0735
8.83181
13.9815
3.9996
0.707136
5.36909
9.21112
4.82998
15.7868
4.77061
0.439714
6.60334
0.620875
0.659429
11.5279
16.6276
5.01578
4.85512
0.708697
0.446197
6.95094
1.48479
1.41422
7.51238
0.993566
1.18744
3.10395
6.23932
6.96508
6.86954
7.35747
8.5067
4.92725
0.600532
5.52864
3.9891
13.0345
13.8219
1.0208
3.61663
0.425551
10.0029
9.0493
7.76803
2.81856
4.7832
9.27902
0.652689
14.3819
13.926
13.2282
14.0635
3.83402
9.88497
17.1254
0.571984
0.607592
6.04827
7.24131
6.78696
3.99675
5.13214
11.1587
3.36344
6.53081
8.75505
0.429816
13.1433
11.2068
2.29673
13.9367
1.79751
6.01719
3.0548
8.65173
2.8692
5.56015
0.415509
10.3606