/*--------------------------------*- C++ -*----------------------------------*\
| =========                 |                                                 |
| \\      /  F ield         | OpenFOAM: The Open Source CFD Toolbox           |
|  \\    /   O peration     | Version:  2212                                  |
|   \\  /    A nd           | Website:  www.openfoam.com                      |
|    \\/     M anipulation  |                                                 |
\*---------------------------------------------------------------------------*/
FoamFile
{
    version     2.0;
    format      ascii;
    arch        "LSB;label=32;scalar=64";
    class       volScalarField;
    location    "10";
    object      nut;
}
// * * * * * * * * * * * * * * * * * * * * * * * * * * * * * * * * * * * * * //

dimensions      [0 2 -1 0 0 0 0];

internalField   nonuniform List<scalar> 
77035
(
0.00097147
0.00103477
0.00104701
0.0012893
0.00139092
0.00106154
0.00115683
0.00124243
0.000772449
0.00116585
0.00102632
0.00101052
0.000912075
0.000890562
0.00143091
0.000877345
0.00238383
0.00117913
0.000950626
0.00100938
0.00128237
0.00113641
0.00112311
0.00128922
0.00119327
0.0011481
0.00126598
0.00125062
0.00120899
0.000912974
0.00138125
0.000939936
0.000866517
0.001814
0.00220874
0.00118266
0.00171341
0.0011993
0.00139607
0.00139287
0.000939145
0.00098565
0.00135722
0.00114659
0.00132609
0.00138349
0.00102476
0.00146341
0.0019025
0.00147116
0.00130944
0.0011489
0.00132068
0.00109934
0.00120723
0.00125773
0.00110697
0.00119681
0.00111862
0.00127323
0.00101865
0.00102531
0.00110202
0.000957021
0.00116294
0.00109018
0.000953986
0.001386
0.00121794
0.000956936
0.0011345
0.00130619
0.000979024
0.00105724
0.000918729
0.00090781
0.00104006
0.00148308
0.00114873
0.00147279
0.00128751
0.00128895
0.000900291
0.00118083
0.000847278
0.000974905
0.00159135
0.00102539
0.0008415
0.00176706
0.00126948
0.00123614
0.00114149
0.0011894
0.00109797
0.00129489
0.00123515
0.00133268
0.000916813
0.00109592
0.000927059
0.00150055
0.00108524
0.00125023
0.00141988
0.000814372
0.00117947
0.00109102
0.00106557
0.000838315
0.00139107
0.00124032
0.00113443
0.00137948
0.0012559
0.000963077
0.00119769
0.00117286
0.00114935
0.00118258
0.000869103
0.00108268
0.000794491
0.00101835
0.000636237
0.000874002
0.00134246
0.00131006
0.000975205
0.00122935
0.000788461
0.00106054
0.00126046
0.00095844
0.00104248
0.000970311
0.000939623
0.00109441
0.00136216
0.000932736
0.00114082
0.00089485
0.00123219
0.00114973
0.00126343
0.00133947
0.00121962
0.00103189
0.0013184
0.000951291
0.00102985
0.00120536
0.00129607
0.0012172
0.000944411
0.000977907
0.00105218
0.0008881
0.000859274
0.00093198
0.00111573
0.00100294
0.00119448
0.000856847
0.00136396
0.00155919
0.00122961
0.000896905
0.00146308
0.00129934
0.00114003
0.00110652
0.000856306
0.000829394
0.00110345
0.00134385
0.00159763
0.00135631
0.000897517
0.000911708
0.000858595
0.000890625
0.00141094
0.00109189
0.00096283
0.0013096
0.00130173
0.00124839
0.00107941
0.00130959
0.001104
0.00122901
0.00102958
0.00173352
0.000823803
0.00122158
0.00123099
0.00113482
0.000848803
0.000587105
0.00103737
0.000901281
0.00109034
0.000928752
0.0010872
0.00150515
0.00111809
0.00159143
0.00128803
0.00151203
0.00114113
0.00136683
0.00122283
0.00134335
0.00130527
0.000683352
0.000848327
0.00127611
0.000844981
0.00117063
0.00135201
0.00115048
0.00126304
0.00160995
0.00166925
0.00095392
0.000841268
0.000760417
0.000966017
0.000808395
0.000854248
0.00134957
0.00153486
0.000944037
0.000910071
0.0013112
0.00109395
0.000885116
0.0010251
0.000753078
0.000912743
0.001062
0.00105296
0.00137127
0.00139787
0.00116614
0.000790639
0.0011844
0.00121971
0.00110179
0.00117108
0.00125823
0.000972586
0.000790305
0.000949109
0.00118936
0.000750964
0.000820224
0.00100372
0.00141633
0.000918538
0.00101749
0.00134539
0.00143877
0.000906017
0.00129556
0.00138613
0.00151394
0.000955653
0.000839032
0.00146153
0.00120633
0.00109176
0.00107534
0.00116467
0.00130963
0.00112628
0.00106671
0.00125212
0.000868138
0.000857729
0.000918876
0.000979784
0.00215002
0.00147511
0.0013651
0.00121466
0.00101025
0.00115518
0.00133951
0.00129564
0.0012788
0.00126739
0.00093272
0.00142898
0.00172317
0.00123423
0.00107568
0.00104405
0.00158569
0.00114984
0.00108064
0.000769746
0.000870272
0.000691724
0.00105004
0.000938474
0.00131865
0.00137542
0.00125202
0.00106181
0.00104299
0.00128807
0.00131194
0.00128492
0.00143868
0.00120859
0.00108382
0.000846786
0.00103949
0.00107137
0.00369023
0.000915379
0.000853673
0.000903134
0.000933172
0.00137331
0.00114383
0.00120033
0.00109084
0.00125643
0.00135087
0.0012581
0.000974384
0.00123706
0.00118635
0.000765552
0.00130825
0.00139212
0.000913378
0.00131819
0.00105492
0.0015471
0.000971839
0.00132331
0.00106174
0.00089051
0.00280021
0.00126878
0.000786904
0.00146616
0.00138501
0.000837144
0.00113329
0.0011483
0.0014253
0.0012503
0.00092769
0.00102031
0.000965303
0.00179127
0.00159835
0.00121484
0.00135203
0.00088576
0.00129739
0.000885777
0.00150562
0.00111688
0.00137526
0.00116054
0.0013524
0.00132474
0.00106597
0.00130484
0.00126482
0.000736226
0.000718478
0.00146147
0.00110333
0.00108376
0.00128646
0.000957781
0.00104734
0.00107976
0.000854196
0.00166735
0.00108337
0.00144557
0.00119719
0.00111528
0.00147116
0.00143857
0.00133991
0.00110275
0.000840323
0.000888839
0.00101371
0.00110343
0.00143213
0.000961193
0.00148182
0.0018213
0.00152231
0.00119224
0.00119147
0.00091389
0.00109579
0.0012237
0.00135288
0.0011287
0.00200635
0.00131323
0.00140235
0.00119624
0.00165167
0.00106253
0.00140033
0.00152668
0.00153595
0.000926505
0.00154536
0.00122787
0.00152189
0.00136906
0.000997036
0.0013633
0.000953539
0.00144896
0.00108156
0.00137268
0.0013202
0.00146717
0.000966127
0.00126977
0.00130892
0.00102025
0.000913776
0.00117699
0.00112122
0.00119419
0.00113059
0.000919446
0.00139263
0.00131145
0.00182748
0.00146541
0.00144295
0.00129476
0.00149532
0.0014979
0.000923982
0.0013371
0.00129009
0.0016143
0.00132307
0.00130628
0.00133366
0.00125904
0.00149332
0.00160499
0.00135084
0.00108666
0.00133498
0.0011252
0.00138406
0.00118307
0.00145144
0.00134815
0.00153328
0.00156854
0.00168268
0.00134269
0.00151458
0.0014228
0.00151394
0.00136248
0.00127023
0.00150225
0.00116397
0.00110751
0.00116012
0.00171151
0.0022257
0.00155698
0.00109039
0.00120886
0.000829492
0.00147744
0.00161758
0.0014126
0.00166515
0.00150062
0.00089185
0.00090094
0.00114936
0.000839954
0.00136321
0.00136139
0.00112293
0.00123691
0.00132006
0.000954688
0.00165131
0.00145664
0.0013788
0.00071656
0.00134621
0.00134174
0.00134108
0.00109681
0.000997128
0.00133701
0.00105691
0.0013009
0.00127336
0.00141353
0.00127045
0.00114428
0.00132558
0.00190676
0.00106931
0.0013134
0.000952342
0.00144742
0.0011377
0.00132718
0.00150408
0.00135167
0.00132214
0.00151707
0.00143429
0.00107468
0.00140255
0.00117107
0.00136542
0.00125146
0.00125446
0.00143345
0.00108428
0.000885179
0.00106112
0.00138223
0.00126747
0.00179806
0.000858058
0.000903713
0.00120968
0.000846852
0.00120039
0.00125519
0.00131886
0.00134832
0.00123121
0.000868472
0.00103123
0.000586692
0.00147471
0.00111437
0.0013104
0.00136807
0.0012027
0.00095852
0.00116941
0.0012326
0.000929819
0.00130478
0.00124147
0.00117598
0.00157231
0.0012789
0.00116552
0.00100398
0.00121796
0.000800216
0.0015202
0.00128777
0.00142153
0.00127563
0.000836242
0.000932507
0.00127156
0.00144347
0.00127887
0.00160942
0.000723607
0.00125431
0.000966262
0.0012355
0.00132401
0.00127421
0.00142009
0.0012111
0.00140507
0.00113543
0.00137097
0.000936674
0.00127528
0.000998957
0.00138804
0.00076274
0.00162987
0.00119907
0.00132598
0.00120142
0.00101321
0.00135038
0.000786225
0.00141556
0.00166184
0.00124391
0.00124836
0.00118372
0.00101312
0.000963583
0.000964425
0.000772987
0.00117173
0.00135629
0.00127909
0.00122329
0.00119256
0.00118625
0.00133171
0.00132724
0.00156234
0.00178867
0.0014531
0.000906594
0.00136113
0.0019725
0.00147408
0.000726926
0.00122595
0.00127119
0.00126862
0.00131366
0.00123782
0.00122477
0.00128816
0.0014453
0.00127499
0.00111802
0.00128279
0.00175565
0.00131188
0.0012486
0.000911592
0.000877866
0.00124429
0.000970917
0.000927586
0.00116193
0.00139751
0.00105538
0.00107987
0.00112438
0.00082751
0.00130856
0.00139279
0.00107855
0.0011812
0.000876066
0.00133326
0.000876281
0.00107256
0.000897174
0.000814863
0.00132965
0.00163635
0.000905798
0.00107937
0.00101097
0.00107998
0.00147445
0.0012732
0.00168461
0.00139659
0.00130256
0.000831246
0.00130538
0.00105291
0.00121416
0.000867095
0.001113
0.00112126
0.00101882
0.000926038
0.00091882
0.00118878
0.00136557
0.00124472
0.00123327
0.000704254
0.00085919
0.00124994
0.00120668
0.00150386
0.00152764
0.00243575
0.000961686
0.00114746
0.00109046
0.000940937
0.00166181
0.00121093
0.000932205
0.0011987
0.0012937
0.00133521
0.00208257
0.000886211
0.000756725
0.00122753
0.00118068
0.00118282
0.00117363
0.00129298
0.000928455
0.00114321
0.00109778
0.00152221
0.00129982
0.00161864
0.000915753
0.000903366
0.00119311
0.00124992
0.00117437
0.00139254
0.000994994
0.00119087
0.00107388
0.000803811
0.000827814
0.00101507
0.00133309
0.00137646
0.00103957
0.000883493
0.000866861
0.00109722
0.00245318
0.000871341
0.00154472
0.0012743
0.00173753
0.00124297
0.00136625
0.00137418
0.00145281
0.00115064
0.00142196
0.00133109
0.00139032
0.00124624
0.00125696
0.000956379
0.000961561
0.000980638
0.0012077
0.000903168
0.00166378
0.00135463
0.00129197
0.000994692
0.00104173
0.00107775
0.00229993
0.0014275
0.00172839
0.00157832
0.00116068
0.000956102
0.00104621
0.00126557
0.00127467
0.00137917
0.0015611
0.00102843
0.00116762
0.000882127
0.000988227
0.00102744
0.000942626
0.00116715
0.00127885
0.00143403
0.0015526
0.00138352
0.00136699
0.000821361
0.00109317
0.000981546
0.000912434
0.00124964
0.000894083
0.00079659
0.00106711
0.00117256
0.000956836
0.00120809
0.00150871
0.00101104
0.00132194
0.00122341
0.00133016
0.00111711
0.00116549
0.00123666
0.00105686
0.0014825
0.00108606
0.0011196
0.000961201
0.00109826
0.00113166
0.00113225
0.00122019
0.00124662
0.00129042
0.00126166
0.000945933
0.00131689
0.00132211
0.000873806
0.00143135
0.00128541
0.00107613
0.00129791
0.00112764
0.00121983
0.00136241
0.0012794
0.000941025
0.00125237
0.00123158
0.00168876
0.00150263
0.00102542
0.00151433
0.00129883
0.00109931
0.000950848
0.00152017
0.00129107
0.00109776
0.000910649
0.00136998
0.00105632
0.00097209
0.000937313
0.00209848
0.00141776
0.00145738
0.00116101
0.000981393
0.00142926
0.00144439
0.00135681
0.00126844
0.000907727
0.00153467
0.000915095
0.00133721
0.00147235
0.00102214
0.000794328
0.000858997
0.00120886
0.000900237
0.00116828
0.0012897
0.00128799
0.00115427
0.000695553
0.000733781
0.00107906
0.001198
0.000842464
0.000847441
0.00131893
0.00129236
0.00117543
0.0013828
0.000970358
0.00157553
0.00134954
0.000843543
0.00126072
0.000846674
0.00100622
0.00110498
0.00109147
0.00126369
0.000856957
0.00102047
0.00146957
0.00134298
0.00160129
0.00132163
0.0014985
0.000817395
0.00118578
0.00101753
0.00143586
0.00143337
0.00132193
0.00126352
0.0011661
0.00150501
0.000979009
0.000978303
0.00125354
0.000964685
0.00118353
0.00115447
0.00094098
0.00104542
0.0011735
0.00100387
0.00118307
0.00117436
0.000828729
0.00101353
0.00113785
0.00123573
0.0012534
0.00109959
0.00110414
0.00137774
0.000767366
0.00127023
0.000932848
0.000825607
0.00136896
0.00120563
0.00131206
0.00105559
0.00112988
0.00113301
0.00134072
0.00133122
0.00139697
0.00165877
0.000818458
0.000974639
0.0017143
0.000923167
0.000975988
0.00138773
0.00200276
0.0023253
0.00090084
0.00144531
0.000478449
0.00130459
0.00113154
0.00124048
0.0014352
0.000939171
0.00105394
0.00111254
0.00106353
0.000912481
0.000888747
0.00115296
0.00126118
0.00151486
0.00127426
0.00100926
0.00124571
0.00144525
0.000887725
0.00117479
0.00135997
0.0012637
0.00151675
0.00129376
0.00150523
0.0010975
0.000907992
0.00107426
0.00138653
0.00154596
0.00183077
0.000965444
0.000931774
0.00124643
0.00104812
0.00106052
0.000765573
0.001086
0.00171472
0.00094355
0.00105336
0.00136896
0.000908879
0.000804209
0.00108907
0.00111889
0.00124027
0.00128435
0.00106497
0.00157369
0.00146158
0.00117535
0.00128873
0.00106145
0.000944537
0.00111441
0.00111889
0.0011477
0.00106488
0.00126353
0.00149112
0.00121307
0.00134851
0.00118248
0.000823286
0.00128531
0.00127572
0.000730099
0.00131862
0.000835153
0.00103371
0.00140198
0.00144914
0.00118863
0.00109112
0.00117508
0.000922223
0.000966737
0.00115382
0.00151964
0.00138687
0.00121151
0.0012723
0.00088496
0.00093161
0.00128321
0.00147918
0.000922602
0.00250415
0.00141455
0.000885686
0.00114201
0.000857883
0.00104838
0.000836252
0.000831272
0.00247632
0.00152266
0.00089143
0.00143737
0.00083359
0.00122782
0.00155578
0.00106577
0.00108911
0.000933631
0.00113894
0.00132222
0.000875717
0.00110829
0.00155157
0.00136035
0.000937688
0.00116928
0.00104592
0.000973511
0.00106452
0.00260379
0.00117288
0.00125561
0.00124569
0.00144368
0.00133751
0.00100085
0.00133584
0.00140082
0.00127177
0.00130865
0.00105299
0.00142551
0.00156812
0.00128865
0.00127866
0.00125066
0.00110336
0.00143924
0.000763998
0.00155245
0.00111453
0.00334894
0.00142169
0.00167434
0.0012591
0.000951694
0.000877044
0.00113388
0.00211741
0.00113739
0.00114752
0.0014658
0.000932131
0.0011338
0.00129511
0.00126966
0.000846036
0.00115683
0.00147685
0.00111226
0.00120091
0.00121513
0.00119072
0.00145657
0.000936552
0.00113708
0.000959525
0.00143451
0.00129006
0.0013813
0.00119447
0.00197148
0.00136862
0.000940218
0.000858588
0.000944782
0.00141276
0.00118246
0.00114891
0.00119452
0.00126516
0.00122771
0.0012931
0.00113507
0.0013888
0.00132878
0.000943288
0.000688744
0.000852138
0.00109139
0.00091502
0.00110804
0.00118845
0.0012288
0.000669144
0.00102967
0.00107684
0.0010262
0.00104247
0.000894294
0.00126988
0.00170205
0.00136462
0.00113293
0.00126892
0.00125866
0.00110761
0.00118645
0.00089656
0.000906003
0.00126078
0.00151611
0.000926019
0.0011551
0.000774033
0.00138311
0.00119484
0.0014004
0.00139737
0.00283985
0.00142715
0.00123041
0.00134847
0.00105304
0.00104691
0.00137195
0.00141309
0.00109507
0.00120947
0.000936815
0.000871999
0.0011112
0.0013242
0.00105105
0.000794513
0.0013025
0.001398
0.000838945
0.000957772
0.00108107
0.00146187
0.000766945
0.001134
0.00135563
0.000844364
0.0012265
0.000866583
0.00094104
0.00108799
0.0012614
0.00107289
0.000859988
0.00124969
0.00116012
0.00146173
0.00129794
0.00134571
0.000835866
0.000817691
0.00119478
0.0011889
0.00112892
0.00100942
0.0011545
0.00169816
0.00149223
0.00110894
0.00157312
0.000845075
0.002256
0.000875131
0.00150748
0.00145101
0.00118701
0.00116262
0.00109509
0.000951459
0.00103954
0.00090925
0.0013613
0.00134456
0.00118677
0.000519021
0.00120697
0.00105557
0.00150469
0.00116074
0.00109313
0.00131894
0.00148014
0.000760769
0.00103914
0.000881852
0.000814973
0.00130743
0.00104343
0.000824578
0.000871701
0.000809639
0.00136022
0.0012625
0.00112407
0.00108446
0.00145144
0.0013055
0.00136343
0.00208036
0.00242516
0.00110275
0.00133661
0.00114885
0.00120235
0.00114689
0.00110235
0.00141349
0.000861582
0.00104367
0.00100576
0.000848342
0.000996938
0.00150723
0.00151272
0.000890367
0.00109998
0.00105647
0.00137397
0.00089183
0.00101568
0.000925158
0.000951043
0.00113412
0.00113891
0.000899844
0.00127253
0.00126626
0.00130224
0.00103962
0.00145877
0.00121504
0.00105259
0.00103622
0.00173748
0.00107605
0.0014022
0.00106915
0.00106041
0.00104285
0.000839087
0.00146707
0.000886972
0.00128431
0.000886806
0.00136524
0.00105658
0.00108925
0.00107477
0.00124288
0.00104043
0.00111113
0.00142105
0.00121446
0.001068
0.00122569
0.000882396
0.000910623
0.00127972
0.0010309
0.00164181
0.000961306
0.000991437
0.00136254
0.00106655
0.00196091
0.000983881
0.000715057
0.00106014
0.000957958
0.000876147
0.00138972
0.00102903
0.00114468
0.00107669
0.00108448
0.00144868
0.00111342
0.00127487
0.000874258
0.00122143
0.00113675
0.000613445
0.00105745
0.00120885
0.000977228
0.00164091
0.00160727
0.0015975
0.000951751
0.000781262
0.00115078
0.00116655
0.00129114
0.00142333
0.00130625
0.000882518
0.00121125
0.00082579
0.000838663
0.00150517
0.00136566
0.0011714
0.00129934
0.00097785
0.000885243
0.00144374
0.00145785
0.00165088
0.00107568
0.000995863
0.00104429
0.00121629
0.0012289
0.00141696
0.00132109
0.00141228
0.00105169
0.0018915
0.000954244
0.00126426
0.000737879
0.0015001
0.0014762
0.00134475
0.000930469
0.000894434
0.00119887
0.00128511
0.00127773
0.0014178
0.00128982
0.00114275
0.000886182
0.0013893
0.00132588
0.00139233
0.00150776
0.0011626
0.00112248
0.00133292
0.000849098
0.000896802
0.00119593
0.00131089
0.00148779
0.00082412
0.000872585
0.00123297
0.00161249
0.00118654
0.00111999
0.000928068
0.00120299
0.00195574
0.000776705
0.00129616
0.00140182
0.000976134
0.00113478
0.00112521
0.00118451
0.0012039
0.000932127
0.00114142
0.00121772
0.00111591
0.000972605
0.00146182
0.00091953
0.000911227
0.000877293
0.00156144
0.00101449
0.000887629
0.00113711
0.000995294
0.00127678
0.000907255
0.00101141
0.0010653
0.00115937
0.00108712
0.00111344
0.00080689
0.000843286
0.000953001
0.0016252
0.00117769
0.00121266
0.00101137
0.00091458
0.000771557
0.00115676
0.000485645
0.00102426
0.000881263
0.00123528
0.00140748
0.00108489
0.00108254
0.00136006
0.0013422
0.00092052
0.00107828
0.00116078
0.00104746
0.00104511
0.000982498
0.00140726
0.00106883
0.00133104
0.0011737
0.00107972
0.000954421
0.00125467
0.000635641
0.00101142
0.00100667
0.000958773
0.000724007
0.000795615
0.00110357
0.00106639
0.00115494
0.000835554
0.00094012
0.00130655
0.00123118
0.000867038
0.00115568
0.00152971
0.00131793
0.00129735
0.000948883
0.000984207
0.000877236
0.00124039
0.00259618
0.00126222
0.000926303
0.00123101
0.000987471
0.00111506
0.000859678
0.00117876
0.00102456
0.00108889
0.00126133
0.000908604
0.000867358
0.000860879
0.00141811
0.0011469
0.000969437
0.0014286
0.000852022
0.000937652
0.000967354
0.00106032
0.00130825
0.00113001
0.00121635
0.00149825
0.00102321
0.00109659
0.000854039
0.000815146
0.000986097
0.00111438
0.000822708
0.000818754
0.000807222
0.000877567
0.00103969
0.000811985
0.000909416
0.00210059
0.00136176
0.00125289
0.00115802
0.0011493
0.00143323
0.00134482
0.000941393
0.000760018
0.000838913
0.000918394
0.000952486
0.00111978
0.00108349
0.00116539
0.000859185
0.000900976
0.00136838
0.00122163
0.00111118
0.00107334
0.00107772
0.00111064
0.00103427
0.00112126
0.000996674
0.00140641
0.00172079
0.00103925
0.0011316
0.000994065
0.000889476
0.00104294
0.00110166
0.00109868
0.00110464
0.00164953
0.00104739
0.000786208
0.000822696
0.00114473
0.00132889
0.00110483
0.00118203
0.00106384
0.000959887
0.00102791
0.00105492
0.0011438
0.00164267
0.000802651
0.00124432
0.00110523
0.00107281
0.000974039
0.00102678
0.00114158
0.000906897
0.00147161
0.00144811
0.00101529
0.00157919
0.00124086
0.00119923
0.00120021
0.00122925
0.000718638
0.000970338
0.000862885
0.00125151
0.00105522
0.00165774
0.000980946
0.000988483
0.00072586
0.000992462
0.000867666
0.000413171
0.00141365
0.00280271
0.000902345
0.00133551
0.00113756
0.00131245
0.00142564
0.00103569
0.0014362
0.000864437
0.000844858
0.00118398
0.0011025
0.0010832
0.00105172
0.000817724
0.000996938
0.000829548
0.0007521
0.00109379
0.00108515
0.00103759
0.0013878
0.000877251
0.00124326
0.00115857
0.00116259
0.00138273
0.001335
0.00128369
0.0011776
0.0012366
0.00109103
0.00132724
0.00121967
0.000921119
0.000804812
0.000579524
0.000775062
0.0010969
0.00178229
0.000821349
0.00121261
0.000799826
0.000898869
0.000903943
0.000811278
0.00105495
0.00112117
0.00121621
0.00109812
0.000907476
0.000997042
0.0012007
0.001005
0.00109962
0.00114799
0.00125388
0.00111524
0.00108631
0.000903302
0.0007889
0.00131531
0.00124889
0.00144832
0.00104207
0.00105466
0.000879826
0.0013174
0.00100591
0.00107137
0.00106591
0.00135519
0.00111717
0.00131871
0.000915483
0.000915249
0.00139492
0.000884365
0.00110602
0.000900059
0.00129214
0.00117775
0.0012649
0.000789616
0.000823758
0.000929758
0.000741917
0.00131828
0.000980817
0.00113506
0.00127926
0.00107489
0.00078278
0.00129619
0.00124074
0.00107438
0.00111697
0.00123471
0.00151238
0.000857567
0.00137275
0.000907968
0.00127744
0.000744244
0.00127591
0.00110478
0.00126786
0.00073159
0.000782352
0.000883547
0.00124892
0.00108064
0.000892712
0.00129619
0.00109836
0.00136976
0.00130188
0.00114313
0.00112303
0.00125076
0.000874072
0.00102017
0.00136263
0.00117411
0.00125165
0.000789216
0.0011656
0.0011456
0.00173673
0.00152893
0.00124303
0.000985955
0.00171081
0.000897813
0.000839454
0.0011208
0.000909371
0.00122282
0.00132624
0.000872212
0.00122899
0.00133938
0.00238441
0.000993752
0.000854674
0.000719554
0.000841041
0.000961681
0.00106081
0.00145
0.00105506
0.00185467
0.00125669
0.00296262
0.00139558
0.000776335
0.00124196
0.00125682
0.00127844
0.00110737
0.00120776
0.000642576
0.000953041
0.00160324
0.00104584
0.00114661
0.00138681
0.000873257
0.00103764
0.000865021
0.000803522
0.000899547
0.00111193
0.00148533
0.000929593
0.000987824
0.00143271
0.00127026
0.000813015
0.00135235
0.00109793
0.0011191
0.000729653
0.000860579
0.00159206
0.00108544
0.00118972
0.00112045
0.000935985
0.00173725
0.00184915
0.00111116
0.00123068
0.00104188
0.000861078
0.00110907
0.000772194
0.000855322
0.000832705
0.0014613
0.00147559
0.000869166
0.00120377
0.000755696
0.00118992
0.00103734
0.00124314
0.00111303
0.000990669
0.000955328
0.00116195
0.00127471
0.000872371
0.000944922
0.000902563
0.00105392
0.00109022
0.000852381
0.00111931
0.00124367
0.00131787
0.00122586
0.00103392
0.000890163
0.000556265
0.001108
0.0010405
0.0010125
0.00120175
0.00161013
0.00144312
0.00128775
0.00126522
0.000820034
0.00113146
0.00113994
0.00112813
0.00133832
0.00141253
0.0010601
0.00091341
0.000883162
0.000998755
0.000845467
0.00111523
0.000986673
0.00121101
0.000853706
0.00135684
0.00145895
0.00142542
0.00113349
0.00089372
0.00100658
0.000904902
0.00124763
0.00116828
0.00124739
0.000812482
0.00112885
0.00106483
0.00143421
0.00104211
0.00119466
0.00131495
0.00123771
0.00127435
0.000894259
0.00116301
0.00139801
0.00197176
0.00109187
0.00110302
0.00154349
0.000958924
0.00132011
0.00118418
0.00107295
0.00201871
0.000889441
0.00103041
0.00090725
0.000862693
0.00128164
0.00143095
0.0012725
0.000830217
0.00075612
0.00186883
0.00064696
0.000663071
0.000931201
0.000603411
0.00143265
0.00123429
0.00112524
0.00111902
0.00119106
0.000740163
0.0010977
0.00120857
0.0012799
0.00120315
0.00116656
0.000906594
0.000891086
0.00109523
0.000932256
0.00122872
0.00053448
0.00118759
0.00135714
0.000931427
0.00138454
0.00159748
0.00200194
0.0012461
0.00120643
0.000976627
0.00125457
0.0021561
0.00124485
0.00126932
0.000831003
0.00114413
0.00114662
0.00128024
0.00145761
0.00115081
0.0012086
0.00114891
0.00122582
0.000979025
0.00119822
0.00132002
0.000916193
0.00119146
0.00116451
0.00123918
0.00110315
0.00127211
0.00128301
0.00177043
0.00103097
0.00138546
0.00115125
0.00129768
0.00101983
0.00115271
0.00099675
0.00114516
0.00132795
0.00117498
0.00113391
0.000959896
0.00130124
0.00115395
0.00143215
0.00108961
0.00104862
0.00122345
0.00122816
0.00130854
0.00122424
0.00120886
0.00113356
0.00113054
0.0012287
0.00134837
0.00123186
0.00124118
0.00109202
0.00128902
0.00130519
0.00137874
0.00111467
0.00121934
0.00119905
0.00119133
0.0011096
0.00118853
0.00102697
0.00111935
0.00126949
0.00114381
0.000940081
0.00176138
0.00135506
0.00100823
0.00116063
0.00118547
0.00124358
0.00123614
0.00120404
0.00129462
0.00121302
0.00127948
0.00148598
0.00139888
0.00118863
0.00113634
0.0011953
0.00102128
0.00118944
0.000805437
0.00110295
0.0014299
0.00085751
0.000934605
0.00116225
0.00106343
0.00122915
0.00132145
0.00122247
0.00125397
0.00125068
0.00124338
0.000937327
0.00143306
0.00137071
0.00097213
0.000860635
0.00112276
0.00116615
0.00121705
0.0012741
0.0010633
0.00117993
0.00120731
0.00110177
0.00134666
0.00137085
0.00138553
0.00116005
0.00121472
0.00127944
0.00143298
0.00111403
0.00112301
0.00111267
0.00126427
0.00113077
0.000820393
0.00142337
0.00130733
0.00177109
0.00088697
0.000994519
0.0011671
0.00142206
0.000738335
0.00139349
0.00131837
0.000812125
0.00103218
0.00108211
0.00116887
0.00125079
0.00123973
0.00113756
0.000762812
0.00289769
0.00241547
0.00109533
0.00152582
0.00142874
0.000799855
0.00132316
0.000859102
0.00115029
0.00130408
0.000676691
0.00149736
0.00112358
0.0012266
0.00122736
0.00105612
0.00137832
0.00137248
0.0014146
0.00136296
0.000874594
0.000755738
0.000905328
0.00118184
0.00128937
0.00100232
0.00132522
0.00117368
0.00134998
0.00110192
0.00113895
0.000912741
0.00104493
0.000857525
0.000793566
0.00095131
0.00116108
0.00128338
0.00127733
0.00128158
0.00116974
0.000839556
0.00128445
0.00137265
0.000938835
0.00132327
0.000940945
0.000703398
0.00121397
0.00100413
0.000788202
0.00112389
0.00114937
0.00116946
0.000849363
0.00127281
0.00127444
0.000945087
0.00124621
0.00106705
0.00126742
0.0013457
0.00109832
0.0013647
0.00126263
0.00120516
0.00112556
0.00134404
0.00107373
0.00127518
0.00115357
0.00103419
0.0010868
0.00124248
0.00135393
0.000906391
0.00137007
0.00142592
0.00122109
0.00101947
0.00125506
0.00124926
0.00122784
0.000641381
0.00100765
0.00125017
0.000979642
0.00133644
0.000905131
0.0010562
0.00140608
0.00143207
0.0011447
0.00123271
0.000906866
0.00136552
0.000640467
0.000998415
0.0010805
0.00141119
0.00136898
0.000863861
0.00137217
0.00147013
0.00144344
0.00124843
0.000864488
0.00140551
0.00127872
0.00068617
0.00116622
0.00125812
0.00110327
0.00114153
0.00125762
0.00081365
0.00125838
0.00142306
0.00125737
0.00136905
0.00114249
0.00122512
0.00141231
0.00130946
0.00837869
0.00732712
0.0091427
0.00803788
0.00794549
0.00608722
0.00660557
0.00458439
0.00522308
0.00443097
0.00303742
0.00289878
0.00215579
0.00215957
0.00957496
0.00168959
0.0160673
0.00621828
0.00474337
0.00810085
0.00666701
0.00592153
0.00894241
0.00813234
0.00739462
0.00509715
0.00835611
0.00787219
0.00419837
0.00171457
0.0049791
0.00612252
0.00387244
0.0114034
0.0124887
0.00792136
0.0135213
0.00570048
0.0102719
0.0112293
0.00648124
0.00346751
0.00909986
0.00727727
0.0114511
0.0130209
0.00646868
0.0133282
0.0114665
0.00823928
0.00674028
0.00588986
0.00761637
0.0064728
0.00454671
0.00916302
0.00580577
0.00722983
0.00588849
0.00781695
0.00841865
0.00662781
0.00536174
0.0018463
0.00926088
0.00567107
0.00217973
0.00887609
0.00440558
0.00282339
0.00843575
0.00519312
0.00633231
0.00791075
0.00284387
0.00194746
0.00609614
0.00809145
0.00806845
0.0133552
0.00684101
0.00616859
0.00580334
0.00407904
0.00382952
0.00706536
0.00840346
0.0045809
0.00425355
0.00440804
0.00439391
0.0103345
0.0094863
0.00566899
0.00530744
0.00673298
0.0055493
0.00748064
0.0077054
0.00890504
0.00507951
0.0111078
0.00385385
0.00703403
0.00419594
0.00611092
0.00683337
0.00728606
0.0050865
0.00224214
0.00817983
0.00947022
0.00686581
0.0103164
0.00886605
0.00556687
0.00942885
0.00696068
0.00762017
0.00757595
0.00179685
0.00562227
0.00284547
0.00405731
0.00386745
0.00175939
0.00372321
0.00521379
0.00589958
0.0085398
0.00371295
0.00670791
0.0085766
0.00508963
0.00516483
0.00256883
0.00336123
0.00437155
0.00824454
0.00717751
0.00976729
0.00184839
0.00692928
0.00656815
0.00749247
0.00626553
0.00539584
0.00525747
0.00717933
0.00656186
0.00613878
0.00725102
0.00984516
0.00839012
0.0047141
0.00237153
0.00647929
0.00445242
0.00173693
0.00616124
0.00588874
0.00508771
0.00462456
0.00480285
0.0110257
0.0126168
0.00697555
0.00185209
0.00769316
0.00845666
0.00762905
0.00654693
0.00171909
0.00157395
0.00547492
0.00947307
0.0110341
0.00825421
0.00196856
0.00209644
0.0025403
0.0048898
0.0100472
0.00999599
0.00641968
0.00525014
0.00796273
0.00677741
0.00694712
0.00755054
0.00665321
0.00854068
0.00404102
0.00505694
0.00706166
0.00808214
0.00758997
0.0090142
0.00247496
0.00204963
0.00484041
0.00504887
0.00660334
0.00366172
0.00507568
0.00911585
0.0066672
0.00814003
0.00788598
0.0097884
0.0063354
0.00792173
0.00842657
0.00886061
0.011779
0.00169732
0.00171745
0.00763994
0.0049012
0.00844505
0.00942675
0.00854866
0.00762479
0.0060797
0.00974592
0.0024511
0.00617018
0.00342708
0.00607658
0.00498877
0.00468635
0.00554501
0.00629903
0.0055951
0.00339437
0.00885866
0.00785491
0.00250864
0.00705449
0.0038319
0.00397907
0.00358876
0.005614
0.00883362
0.00718675
0.00473789
0.00336747
0.00694817
0.00657874
0.00708134
0.00584833
0.00874423
0.00659165
0.00409597
0.00290908
0.00582919
0.00337984
0.0028605
0.00530215
0.00497813
0.00480594
0.00575335
0.00799261
0.00927237
0.00578701
0.0113474
0.00799701
0.00951747
0.00459596
0.00190353
0.0136458
0.00823945
0.00476958
0.00620666
0.00717436
0.00247623
0.00620628
0.00659657
0.00885284
0.00201598
0.0034603
0.00267404
0.00772004
0.0162894
0.00741461
0.00911742
0.00548622
0.00702656
0.00583592
0.0081506
0.00754047
0.00806528
0.00681161
0.00312169
0.0113259
0.0122495
0.00632246
0.00715217
0.00668666
0.00614143
0.00637331
0.00846245
0.0017295
0.00418099
0.0040039
0.0052009
0.00240462
0.00454942
0.0125685
0.00960968
0.00547608
0.00451506
0.00712023
0.00577686
0.0115043
0.012571
0.0077601
0.00687126
0.0049341
0.00522193
0.00400634
0.0262387
0.00511399
0.00184921
0.00255477
0.00180111
0.00898796
0.0040785
0.00476103
0.00371906
0.0083254
0.00941182
0.00407695
0.00574629
0.00695143
0.00768228
0.00290426
0.00324488
0.00972298
0.00453383
0.00736223
0.00472476
0.0101037
0.00518199
0.00870085
0.00576977
0.00433012
0.0174718
0.00794668
0.00193694
0.00727623
0.0119425
0.0019188
0.00808283
0.00772304
0.00939577
0.00623994
0.00472913
0.00420066
0.00717558
0.0138116
0.0091393
0.0075145
0.00661435
0.00438126
0.00592277
0.00382779
0.00970066
0.00496074
0.01121
0.00999412
0.0082179
0.00899137
0.00771619
0.0047
0.0100099
0.00250091
0.0053676
0.010925
0.00861369
0.00531264
0.00888761
0.00563075
0.00679153
0.00567307
0.00713572
0.0139381
0.00752702
0.0103798
0.00889797
0.0034084
0.0105364
0.0097629
0.00734142
0.0079279
0.00468378
0.00351181
0.00564419
0.00640217
0.00589488
0.0031289
0.00941249
0.00537902
0.00906482
0.0076726
0.00754455
0.00460111
0.0062981
0.00765259
0.00868837
0.00648018
0.0149491
0.00954164
0.00916723
0.00386733
0.00561135
0.00706272
0.0094362
0.0145562
0.00976819
0.00190783
0.0117399
0.0064028
0.0104282