/*--------------------------------*- C++ -*----------------------------------*\
| =========                 |                                                 |
| \\      /  F ield         | OpenFOAM: The Open Source CFD Toolbox           |
|  \\    /   O peration     | Version:  2212                                  |
|   \\  /    A nd           | Website:  www.openfoam.com                      |
|    \\/     M anipulation  |                                                 |
\*---------------------------------------------------------------------------*/
FoamFile
{
    version     2.0;
    format      ascii;
    arch        "LSB;label=32;scalar=64";
    class       volScalarField;
    location    "10";
    object      p;
}
// * * * * * * * * * * * * * * * * * * * * * * * * * * * * * * * * * * * * * //

dimensions      [0 2 -2 0 0 0 0];

internalField   nonuniform List<scalar> 
77035
(
-769.013
-585.95
-483.482
-817.279
-841.577
-1067.48
-1068.74
-1155.79
-580.119
-1141.12
-1161.71
-1159.57
-72.03
-62.2303
-900.879
-4.72859
-884.041
-1114.2
-598.628
-60.4637
-965.92
-856.103
-802.225
-836.674
-1075.73
-1127.96
-763.409
-754.509
-872.442
-6.50943
-855.649
-5.91691
-49.5013
-1010.57
-996.858
-830.146
-866.515
-840.481
-1096.06
-1072.14
-726.911
11.3541
-816.372
-763.673
-1055.02
-1057.39
-1052.54
-1062.51
-937.941
-792.341
-796.294
-1004.01
-848.747
-16.7477
-861.036
-980.511
-855.294
-783.843
-523.11
-726.263
-1028.4
-1046.48
-837.712
-7.2774
-1063.86
-44.5759
-1153.54
-823.359
-947.931
-1146.58
-1033.49
-870.819
-861.798
-989.496
4.72395
-1155.18
-309.759
-354.662
-975.095
-773.341
-525.366
-529.23
-14.2046
-600.341
3.56339
-912.034
22.7799
-1056.69
-11.109
-679.406
-826.248
-1071.77
-1070.41
-882.338
-883.336
-772.401
-744.25
-1121.14
-169.49
-759.765
-868.686
-1012.16
-871.11
-19.1399
-593.653
-233.776
-855.575
-819.29
-836.737
15.6034
-29.2436
-1069.66
-872.924
-866.177
-825.648
-619.255
-1063.69
-988.526
-877.234
-1001.06
1.00424
-1116.58
-2.62195
-11.5951
-27.6249
3.17484
-1141.31
-958.44
-65.4712
-443.244
-268.118
-872.239
-191.535
-851.62
-857.788
-30.9052
-19.5411
-801.83
-1101.74
-1059.53
-1056.56
3.83884
-851.582
-466.242
-900.045
-846.027
-726.397
-763.122
-520.678
-513.177
-89.0883
-783.923
-819.607
-852.218
-5.00566
-6.21787
-1062.26
-917.347
0.782094
6.54183
-1118.74
-1105.11
-713.527
-547.333
-905.99
-1065.54
-1092.5
-1152.12
-832.064
-972.263
-907.344
-926.107
-1148.51
-1148.2
-1072.77
-774.28
-789.182
-799.188
-1152.97
-1156.43
21.5735
-574.453
-804.533
-859.464
-628.667
-497.791
-1045.11
-831.304
-1057.6
-1079.55
-828.216
-939.907
-123.28
-728.7
-658.067
-895.809
-899.61
-861
0.0109048
-40.0623
-985.58
-1058.13
-890.627
-628.399
-1060.9
-969.439
-1043.53
-879.938
-821.345
-691.787
-606.307
-1092.32
-895.815
-897.427
-836.695
23.1361
10.3637
-797.682
-92.5509
-877.448
-591.561
-784.999
-512.392
-540.671
-822.051
-5.81831
-624.954
-88.8297
-1026.9
-37.4549
-75.3241
-892.149
-1075.11
16.3103
-1139.68
-833.62
-766.163
6.77759
-659.626
-26.7638
17.9661
-828.601
-821.52
-1081.72
-1076.46
-406.95
1.92346
-1018.25
-836.955
-1008.91
-780.846
-1080.34
-112.993
-1058.68
-443.941
-93.0298
-34.8525
-1138.78
-859.828
-853.709
-532.669
-1104.88
-1102.49
-1101.89
-121.977
-1029.31
-832.886
-862.997
-876.366
-5.55405
-1042.25
-946.361
-1135.67
-1010.07
-875.133
-692.023
-1120.87
-1106.98
-823.059
4.70024
-550.242
-561.989
-104.064
-1011.13
-718.688
-890.362
-822.705
-11.3761
-1115.3
-1079.32
-1072.23
-1051.17
-1028.18
-1135.64
-1070.91
-997.472
-854.014
-865.505
-560.851
-458.291
-900.344
-113.907
10.451
16.642
-518.918
-15.1033
-78.0916
-1029.08
-744.338
-1025.65
-1120.4
-1069.69
-1059.06
-401.409
-1038.44
-1051.84
-1012.44
-1046.05
-1.01789
-516.907
-524.121
-943.811
-586.571
-22.0334
4.32051
-0.238043
-822.292
-318.696
-1080.33
-1076.82
-1025.34
-702.306
-1162.58
-1094.64
-1094.66
-825.877
8.11605
-1163.31
9.23515
16.5375
-995.805
-1001.26
-805.34
-317.419
-797.259
-921.607
-527.57
-893.488
-733.149
1.35455
-987.157
-666.244
5.99727
-714.032
-2.8136
-1001.65
-1092.12
-148.06
-152.148
-667.432
-904.72
-936.737
-1059.97
-905.657
3.58541
-716.846
-108.576
-1093.56
-1033.45
-1018.85
-495.5
-847.491
-799.334
-801.485
-1096.18
-878.368
12.1649
-543.188
-833.878
-721.179
-1075.62
-793.37
-30.3833
4.85321
-749.952
-469.136
-871.013
-823.03
-939.846
-12.311
-1141.96
-753.016
-1076.46
-1107.88
-1021.37
-226.055
25.6588
-730.895
-843.644
33.4295
-1114.47
-745.592
-915.226
-924.027
-764.36
-889.75
-1101.3
-1027.02
-859.332
-828.49
-839.535
-957.946
-986.534
-650.459
-916.531
-533.777
-870.983
-647.204
-779.426
-1070.1
-1.82415
-924.682
-1136.27
-912.021
-956.866
-82.9014
-754.601
-34.4348
-980.05
-206.213
-828.105
-939.989
-771.534
-109.752
-777.268
-1168.04
-129.146
-0.595756
-877.258
-1024.8
-1034.17
-1133.08
-41.6493
-804.103
-1060.07
-959.024
-788.266
-744.252
-840.934
-891.953
-769.152
-21.2601
-773.543
-756.359
-907.61
-635.323
-850.228
-514.421
-824.228
-986.765
-863.65
-888.084
-589.551
-902.279
-806.281
-806.322
-572.598
-36.4793
-16.9278
-944.582
-784.991
-941.005
-743.323
-976.69
-837.656
-826.177
-641.837
-579.178
-894.045
-806.453
-833.721
-1170.54
-1023.07
-980.643
-991.59
-861.261
-996.806
-39.0999
-872.59
-878.384
-1016.93
-972.144
-865.393
13.3583
-3.17697
-848.864
-1155.87
-631.279
-1096.9
-508.854
-924.335
-1062.5
-1043.83
-970.206
-706.464
-1010.24
-520.329
-821.31
-763.429
-776.756
-495.571
-906.94
-875.565
-598.552
-781.827
-499.88
-1099.99
-856.033
-1036.25
-803.954
-1049.55
-891.598
-1074.59
-510.087
-853.882
-592.148
-983.914
-927.99
-786.967
-839.575
-1007.08
-839.888
-734.354
-848.969
-974.109
-860.1
-808.089
-853.512
-1047.32
-223.57
-1152.96
-883.251
-786.813
-895.712
-1053.4
-804.615
-1.45337
-853.622
-1035.32
-51.3452
-329.114
-1010.1
-805.63
-1047.08
-1070.18
-1030.84
-62.6303
-911.937
-848.373
-1067.88
-1029.63
-428.321
-205.109
-1072.68
-1055.24
-853.187
-1073.85
-828.184
-831.304
-912.729
-1099.46
-1077.54
-424.975
-534.669
-608.978
-858.613
-790.639
-800.718
-896.721
-1155.68
-1156.11
-328.819
-809.852
-1071.95
-985.423
-1043.22
-764.05
-52.5352
-1129.34
-615.856
-1078.74
-1072.33
-842.236
-848.934
-617.395
-911.398
-856.529
-1005.31
-79.7083
-1012.42
-1029.3
-533.808
-1017.81
-832.339
-1043.07
-1039.52
-1019.07
5.03299
-895.576
-1164.27
-750.322
-827.337
-991.935
-588.771
-453.864
-204.036
-257.047
-38.8188
-981.851
-862.344
-25.0278
-852.575
-963.751
-1000.32
-994.317
-1091.45
-876.245
-685.776
-993.81
-946.481
-903.844
-1087.26
1.07314
-850.312
-789.361
-591.209
-1081.07
-1074.49
-841.167
-820.571
-856.049
-1013.95
-1029.26
-606.723
-638.315
-849.19
-854.007
-1157.8
-326.468
-804.055
-871.272
-2.6876
-853.179
-1078.43
-600.621
-654.323
-666.174
-1078.39
-647.483
-399.573
-1017.3
-841.553
-0.447706
-872.895
-2.97517
-893.507
-301.538
-310.687
-839.558
-787.245
4.01907
-535.678
-706.595
-711.302
-885.735
-1010.57
-1036.37
-1054.57
-289.92
-1152.18
-867.214
-190.756
-886.955
-603.169
-458.672
-632.147
-12.9898
-843.663
-37.6978
-519.062
-324.009
-845.211
-848.976
-671.29
-3.0226
-1008.88
-1080.06
-970.855
-915.347
-906.441
-169.973
-1054.48
-596.635
-1155.34
-954.605
-861.059
-516.261
-93.6702
-994.023
-815.776
-913.157
4.64265
-70.2
-613.234
-646.127
-879.098
-1048.26
-890.909
-1081.19
-1146.89
-859.721
-1103.55
-765.272
-921.254
-48.384
-42.9618
-1002.16
-914.722
-1068.17
-1095.68
-16.1984
-383.685
-249.145
-79.8682
4.68795
-855.173
-801.235
-882.864
-887.88
-905.919
-157.607
-1089.41
-970.406
-1037.22
-950.66
-989.783
-955.798
-1033.63
-762.66
-662.288
-442.807
-838.303
-930.357
-848.265
-852.44
-1044.01
-1036.54
-916.78
-899.159
-13.7571
-1079.26
-630.706
-871.578
-855.614
-504.521
-537.921
-1100.26
-1042.48
-970.26
-1080.2
-959.735
-970.303
-495.206
-9.03198
-727.075
-1007.2
-937.301
-1063.98
-1043.48
-569.095
-880.815
-942.562
-66.3826
-1106.94
-854.898
-403.89
-808.912
-1028.3
-967.481
-1083.04
-894.009
-924.091
-1053.6
-866.389
-867.802
-1140.61
-1.25973
-106.274
-1047.3
-853.556
-6.15952
-906.468
-804.817
-544.886
-761.085
-1126.19
-1017.63
-893.43
-844.794
-813.724
-963.165
-906.201
-1004.24
-1107.61
-925.044
-620.859
-707.79
-659.087
-757.425
-50.3538
-717.221
-1131.34
40.677
-862.563
-1079.15
-58.3987
-1071.71
-1056.27
-1003.22
-862.403
-1028.27
-1044.95
-999.512
-860.416
-21.2611
-1017.58
-1069.83
-998.988
-974.905
-1150.52
-1085.36
-452.05
-1037.06
-76.0538
-1032.98
-799.67
-217.608
-521.273
-735.305
-556.976
-539.654
-848.511
-878.292
-1073.74
-1056.71
-753.766
-141.282
-714.98
-795.159
-768.985
-761.266
-51.9633
-783.451
-1142.37
-838.579
-892.11
-1049.15
-130.651
-608.25
-856.543
-1008.09
-847.813
-969.022
-579.541
-542.684
-1049.74
-1030.21
-226.287
-813.471
-1065.76
-1061.93
-816.979
-838.354
-1083.56
-952.419
-723.965
-912.423
-1083.68
-326.358
-1059.6
0.0187126
-756.926
-1123.75
-1122.94
-1021.71
-1158.71
-1162.18
-1014.62
-1035.95
-938.66
-1152.41
-1106.14
-520.819
-1073.81
-117.89
-781.817
-1004.52
-1019.22
-1039.28
-1050.51
-761.011
-747.369
-1131.26
-595.061
-4.96837
-864.719
-1027.86
14.6605
-424.246
-869.529
-766.39
-1013.23
-1026.56
-1157.55
-86.1423
-130.423
-1017.63
-1033.4
-1124.11
-1113.67
-1021.98
-246.467
-858.396
-150.07
-1033.13
-891.792
-846.845
-884.068
-751.394
-971.81
-343.311
-982.746
-817.592
-1007.56
-908.104
-4.22167
-1160.21
-808.22
-193.883
-620.433
-912.381
-891.323
-988.148
-63.7829
-1076.21
-336.887
-830.879
-874.17
-852.208
-933.084
-318.329
-193.483
-1045.86
-1059.06
-136.732
-1154.98
-295.312
-859.367
-1069.47
-1041.14
-1158.48
-327.795
-904.993
-559.01
-859.55
-885.994
-748.363
-966.626
-966.569
-898.462
-908.796
-1036.41
-1013.85
-864.401
-966.478
-958.024
-729.447
-1151.22
-549.841
-602.704
-789.533
-560.785
-846.686
-574.22
-1011.19
-592.571
-1167.83
-649.957
-392.903
-992.715
-1001.87
-871.792
-907.077
-897.385
-822.105
-551.041
-870.37
-863.928
-32.0693
-36.1052
-1083.74
-919.681
-1052.95
-1045.81
-1089.65
-1008.32
-727.701
-965.607
-307.456
-589.908
-1074.2
-935.684
-632.835
-1011.13
-620.169
-373.736
-990.846
-1012.67
-1044.23
-1085.52
-923.6
-16.1639
-1053.47
-0.159819
-874.643
-914.791
-540.844
-881.714
-2.43584
-5.62075
-847.068
-872.728
-42.0626
-922.176
-991.522
3.00263
-803.587
-40.147
-10.0964
-620.106
-565.599
-889.758
-638.724
-66.6504
-1057.81
-194.062
-1093.15
-861.41
-701.574
-788.845
-125.422
-1106.95
-866.371
-1004.51
-871.732
-928.807
-965.622
-6.92619
-870.001
-1060.32
0.544443
-886.236
-940.227
-833.978
-1004.6
-857.428
-882.974
-867.592
-120.637
-849.528
-959.374
-903.283
-879.405
-101.908
-972.789
-978.682
-607.449
-859.208
-759.025
-1048.53
-999.837
2.60641
15.9094
-769.951
-928.468
-1074.47
-924.804
-959.806
-1.06383
-0.548941
-878.583
-887.003
-885.303
-43.6348
-809.294
-1045.32
-1029.56
-1134.39
-1146.19
-351.734
-930.001
-1076.05
-805.39
-779.886
-615.654
-867.47
-846.225
-1139.19
-76.9027
-584.439
-1069.55
-1037.36
-1106.18
-1091.89
-921.886
-1039.13
-1034.55
-1148.65
-1150.27
-952.552
13.2349
-1104.87
-787.34
-812.438
-805.164
-986.194
-848.721
-862.539
-802.902
-1147.78
-553.576
-90.201
-107.557
-214.37
-664.199
-865.557
-853.854
-135.345
-58.3129
-624.361
-601.316
-557.653
-367.141
-880.628
-883.675
-1037.72
-892.563
-1094.35
-1121.33
-635.962
-781.875
-1.64707
0.714936
-869.908
-697.164
-1059
-1003.99
3.10234
-946.338
-773.246
-1100.83
-1111.72
-909.746
-854.989
-806.088
-817.287
-1007
-1014.52
-845.429
-859.031
-651.703
-1074.15
2.01358
-26.2643
-889.393
-890.085
-898.938
-293.001
-1145.56
-939.63
-524.208
-161.866
-590.236
-949.855
-598.869
-599.022
-1065.45
-6.4908
-797.815
-1160.76
-1159.08
-1002.61
-1132.65
-710.64
-1150.79
-996.375
-1051.9
-1091.68
-844.1
-1074.44
8.73305
-1045.5
-909.989
-606.153
-622.241
-1.32797
-991.194
-1019.15
-882.065
-883.176
-1152.21
-886.964
-916.877
-6.7047
-870.841
-1061.03
-858.738
-837.046
-630.128
-572.747
-795.203
-27.6009
-838.365
-545.685
-554.462
-373.027
-1097.4
-584.192
-1011.9
-872.952
-1118.6
-848.045
-864.873
-80.188
-75.288
-1156.76
-99.2892
-829.657
-1075.67
-59.3078
-1148.76
-0.108673
15.5969
-8.82226
-973.138
-960.298
-779.664
-785.035
-1059.81
-855.672
-878.387
-1055.43
-877.198
-603.842
-593.725
-836.957
-832.259
-939.255
-644.777
-158.901
-103.428
-0.92646
-888.318
-840.28
-885.826
-15.8541
-1153.38
-1033.35
-847.38
-221.439
-379.051
35.8146
-10.2519
-674.051
-833.875
-18.921
-1064.47
-1017.03
-428.67
-43.2654
-923.149
9.44279
-260.002
-845.678
-814.375
-611.552
-870.029
-785.163
-833.258
-114.833
-9.73916
-1057.77
-1151.09
-53.8252
-1150.92
-19.2338
-1124.7
-779.042
-244.773
-339.108
-862.435
-1133.81
-1010.43
-943.505
-1093.29
-884.816
-14.9625
-3.56694
-858.655
-991.658
-1011.49
-893.049
-38.6111
-966.316
25.4633
-926.423
-938.338
-385.291
28.342
-0.0773756
-0.868348
-807.924
-1029.81
-839.621
-772.696
-821.491
-1114.08
-1062.05
-1069.29
2.88937
-848.013
-866.757
24.5219
-825.017
-695.773
-1038.32
-892.088
-891.562
-909.177
-837.117
-42.1986
-941.54
-660.052
-385.877
-926.688
-65.5145
-2.22779
-1092.06
-14.1254
-20.3122
-763.51
-992.67
-399.299
-459.254
-41.5347
2.72768
-1015.72
-1009.92
-1009.71
-612.712
-1150.07
-1136.88
-32.7327
-926.833
-990.338
-1006.34
-1127.9
-540.213
-1061.47
-1155
-789.735
-865.879
-905.699
-874.891
-1061.08
-1036.4
-2.80283
-853.135
-850.842
-825.564
-737.354
-1049.9
-679.063
-1122.73
-833.176
-844.887
-839.969
-795.144
-1148.56
-918.529
-900.882
-24.9293
-28.9681
-811.715
-786.923
-875.739
-869.784
-617.697
-886.501
-1054.25
-495.177
-841.408
-4.39183
-790.037
-900.841
-1068.99
-853.79
-303.265
-890.184
-99.0413
-869.288
-1076.21
-873.546
-4.5029
-889.412
-865.422
-881.204
-28.0259
-535.998
-19.8633
5.28919
-195.551
-1038.33
-1150.76
-1.3415
-832.263
-803.774
-78.074
-1130.98
-1155.62
-19.16
-1097.01
-1159.55
-681.878
-876.885
-679.473
-3.51961
-924.031
-683.457
-736.053
-746.109
-1147.27
-117.985
-160.84
-335.962
-850.349
-75.1532
-886.457
-705.076
-636.061
-61.4651
-19.8598
-957.475
-1161.65
-954.195
-697.801
-697.743
-665.33
3.05339
-998.755
-593.726
-1074.44
-747.969
-646.943
-1154.05
-881.222
-410.82
-637.188
-596.632
-59.1764
-33.6416
-529.725
-598.427
-590.509
-935.522
2.7383
4.37476
-841.804
-850.323
-2.52898
-949.409
-895.951
-1170.99
-750.205
-1135.09
-1133.22
-589.617
-1145.2
-916.325
-999.759
-1011.8
-856.386
-858.606
-847.93
-9.5014
-436.569
-735.681
-102.904
-1009.94
-23.9905
-24.4532
2.04841
-846.629
-935.345
-1134.18
-732.577
-1148.81
-1159.54
-1164.12
-763.102
-697.622
-888.281
-892.073
-798.592
-834.702
-1078.36
-19.4954
-36.8093
-688.171
-722.379
-0.498862
0.668081
-10.0976
-10.6074
-874.152
-1146.79
-2.38602
-1044.86
-1059.91
-852.742
-631.744
-637.465
-1057.68
-1023.66
-1025.38
10.6825
-125.887
-1094.87
-1158.22
-223.767
-196.134
-543.042
-1161.16
-10.1389
-864.31
-872.826
-871.1
-603.548
-574.924
-1013.17
-515.733
-568.028
-1133.34
-1128.98
-979.909
-637.802
-852.87
-919.744
-202.599
-612.309
-651.236
-695.741
-805.18
-428.567
-464.202
11.747
-91.7479
-1087.75
-1100.44
-745.347
-572.377
-565.101
-523.394
-546.762
-593.558
-589.013
-971.305
-724.845
-1168.15
-57.7271
-13.426
-91.6703
-58.328
-605.899
-2.14132
-1173.81
-898.986
-353.215
-1037.36
-819.186
-798.376
-858.232
-782.26
-38.0796
-42.4374
-1158.08
-786.426
-67.7138
-1034.05
-544.284
-556.225
-22.0561
-1073.02
-1159.69
-348.408
-1098.29
-941.284
11.0568
-825.053
-910.41
-1091.97
-1057.56
-617.991
-786.526
-4.86595
-2.01356
-570.761
-125.595
-758.082
-1139.25
-1.29292
-182.526
-148.486
-625.869
-984.772
-686.72
-610.275
-792.942
-1148.04
-837.156
-1135.28
-1140.32
-1155
-1181.33
-830.695
-851.459
-934.562
-911.864
-836.232
-839.433
-15.9236
-76.3104
-117.853
-524.362
-791.187
-535.47
-33.6163
-625.355
-125.495
-84.0981
-23.074
-74.6748
-630.151
-671.21
-234.853
-140.806
-5.95257
-614.078
-615.278
-584.769
-958.824
-946.411
-777.269
-214.111
-175.259
5.89316
-248.314
-876.275
-809.718
-797.016
-875.568
-1122.02
-28.5553
-1080.34
-237.589
-167.296
-345.464
-1089.38
-757.988
-866.985
-2.63815
-2.19714
-531.628
-1149.75
-1119.78
-3.87706
-1070.32
-827.279
-1118.07
-272.456
-87.1547
-634.006
-27.1645
-1079.23
-1054.79
-690.303
-907.873
-871.846
-947.077
-822.201
-810.096
-1009.78
-1076
-1059.39
-641.935
-1150.65
-802.2
-45.3154
-826.112
0.84298
-983.58
-891.912
-976.657
-96.7384
8.08757
13.0336
-577.546
-35.8198
-13.7312
-789.74
-707.234
-1112.72
-1116.46
-659.806
-1116.5
-1096.46
-634.675
-906.5
-709.085
-741.018
-1102.66
-1047.82
-701.965
-708.188
-1045.54
-1057.45
-742.439
-5.91355
-991.648
-2.14187
-1013.86
-1040.15
-14.5999
-1114.23
-823.905
-1.73483
-1093.75
-943.928
-1016.77
-791.664
1.23304
-10.5517
-5.16903
-537.894
-1116.89
-270.423
-898.795
-1061.04
-806.33
-963.172
-31.6643
12.4213
-892.546
-821.572
-722.074
-317.086
-1097.9
-431.086
-32.3872
-840.43
-956.283
-839.601
-877.933
-102.604
-93.8039
-43.2659
-28.9724
-1128.94
-143.951
-855.161
-0.713677
-338.762
-545.598
-856.069
-28.1348
-1050.55
-888.55
-1158.93
-110.66
-13.6767
-1071.76
-863.156
-1054.55
-677.433
-3.18507
-1058.51
-560.046
-418.196
-927.551
-156.847
-8.51779
-745.954
-445.607
-40.754
-37.5098
-924.513
-1000.14
2.16754
-1117.44
-459.02
-1071.25
-945.938
-1028.67
-25.9295
-1159.31
-500.741
11.5596
-769.777
-1149.07
-51.9129
-1089.5
-602.424
-754.96
-364.793
-35.0776
-1108.89
-1089.42
-902.026
-259.921
-33.7538
-363.202
-803.711
-354.351
-5.76183
-851.406
-1060.34
-1061.92
-1139.03
-1117.38
-1158.99
-672.789
-910.052
-823.334
-1128.24
-768.964
-98.6997
-76.2198
-956.479
-958.361
-1154.11
-1010.92
-732.662
-707.021
-21.0696
-1114.24
-877.706
-61.5166
-794.243
-3.23955
-108.802
-145.155
-625.116
-580.745
-785.324
-520.237
-1049.34
-732.022
-745.917
-122.081
-774.847
-756.528
-753.086
-1025.5
-544.258
-685.779
-1005.08
-14.6254
-884.952
-882.187
-1070.86
-665.612
-885.912
-504.304
-714.521
-1035.75
-45.321
-616.34
-575.693
-24.9063
-904.067
-912.666
-802.564
-604.283
-614.623
-965.889
-71.5816
-86.1613
-2.6826
-364.919
-762.109
-808.78
-867.012
-684.335
-852.357
-64.8366
-461.564
-1007.43
-903.185
-1091.03
-1099.41
-1156.24
-5.48079
-761.115
-226.522
-858.282
-316.313
-915.844
-905.809
-70.1279
-853.789
-328.369
-1042.12
-880.153
-761.721
-974.491
-587.837
-1028.43
-1155
-869.76
-503.054
-800.713
-761.277
-846.48
-824.455
-941.244
-789.32
-831.891
-817.906
-550.673
-877.094
-843.319
-1151.4
-789.328
-1054.67
-1005.04
-1019.06
-1047.86
-813.802
-996.508
-392.056
-798.894
-842.925
-788.798
-155.138
-956.43
-389.729
-456.949
-800.857
-505.517
-694.822
-914.396
-555.528
-1099.4
-1021.46
-109.136
-745.045
-1126.1
-505.995
-919.779
-867.939
-663.895
-673.079
-696.739
-930.62
-831.768
-874.871
-716.339
-838.879
-802.089
-879.155
-829.363
-851.289
-828.027
-732.635
-401.598
-687.204
-565.08
-562.929
-1096.94
-854.112
-777.389
3.57865
-1063.97
-926.896
-758.85
-694.504
-117.162
-1101.66
-741.139
-944.885
-976.275
-1004.94
-820.93
-944.145
-1026.3
-692.527
-731.281
-803.285
-31.2139
-831.714
-567.52
-688.974
-963.825
-68.0976
-63.0727
-699.204
-724.238
-721.848
-713.187
-768.057
-748.568
-743.18
-33.4885
-1159.75
-808.875
-1103.62
-4.67456
-6.2763
-776.833
-705.485
-705.38
-749.681
-762.787
-753.868
-1093.81
-725.179
-838.848
-840.452
-539.226
-494.555
-813.127
-892.481
-809.99
-839.289
-636.438
-521.425
-696.617
-715.087
-34.9784
-790.268
-861.966
-1031.17
-726.277
-774.864
-1108.12
-800.445
-556.012
-1054.06
-1108.89
-501.939
-587.128
-579.558
-907.26
-772.599
-542.938
-745.827
-419.113
-940.445
-980.519
-687.562
-1019.82
-765.113
-317.978
-832.049
-1.33616
-690.532
-1072.76
-351.232
-819.153
-61.7479
-1119.9
-839.868
-574.316
-753.449
-746.118
-766.393
-870.851
-395.427
-21.6754
-1155.48
-833.37
-822.244
-1113.5
-808.881
-85.0019
-32.6702
-1043.02
-764.938
-33.9937
-1118.93
-470.286
-444.669
-3.01736
-914.888
-1125.49
-1109.73
-1146.43
-1140.38
-504.502
-479.351
-853.406
-462.494
-522.669
-22.7682
-408.545
-840.282
-342.679
-19.508
-590.74
-549.294
-1013.41
-417.561
-1080.99
-771.499
-2.27544
-899.576
-938.653
-884.231
-1016.85
-571.096
-890.368
-1011.9
-457.017
-1101.08
-895.494
-318.225
-807.787
-882.197
-487.836
-494.224
-836.25
-490.857
-439.365
-1040.52
-397.504
-990.63
-538.275
-1098.98
-1144.3
-651.254
-366.408
-889.99
-851.016
-487.371
-905.856
-488.135
-1108.03
-863.685
-1036.44
-637.564
-868.531
-399.23
-574.902
-302.966
-1097.23
-1123.51
-1089.15
-837.809
-460.114
-894.42
-874.52
-837.791
-810.25
-468.94
-778.968
-366.39
-432.577
-1144.17
-1091.28
-1101.9
-494.804
-1100.59
-497.971
-431.013
-988.496
-1098.33
-390.315
-575.544
-468.878
-888.202
-386.679
-767.046
-580.841
-483.519
-814.955
-821.393
-1066.88
-1069.54
-1155.81
-580.016
-1141.12
-1161.55
-1159.46
-72.1053
-62.2622
-897.04
-4.73216
-883.798
-1114.06
-604.256
-59.0873
-964.04
-860.319
-796.498
-840.603
-1074.38
-1121.25
-753.403
-750.39
-862.067
-6.50651
-856.172
-7.92844
-49.2772
-1010.31
-997.355
-831.892
-867.857
-839.409
-1095.3
-1071.64
-730.326
11.0063
-825.014
-763.769
-1053.9
-1056.45
-1049.66
-1058.99
-937.621
-791.338
-793.365
-1002.88
-848.374
-17.7807
-859.621
-980.859
-854.654
-778.182
-522.395
-721.478
-1029.37
-1046.04
-838.545
-6.96899
-1061.24
-45.4418
-1153.27
-831.469
-944.769
-1146.22
-1034.45
-860.439
-863.753
-992.553
4.75473
-1155.16
-306.785
-349.711
-975.896
-753.16
-524.7
-525.639
-14.6746
-601.09
3.49773
-913.912
21.2704
-1050.09
-11.2693
-679.654
-811.593
-1070.03
-1068.98
-864.058
-856.749
-772.706
-751.77
-1117.74
-167.623
-768.455
-868.16
-1012.4
-867.452
-18.8615
-593.467
-232.883
-844.941
-822.078
-829.73
15.3998
-29.3658
-1067.82
-874.232
-854.781
-822.324
-623.526
-1063.62
-989.45
-879.656
-999.468
1.00779
-1116.41
-3.07281
-11.5631
-27.6257
3.19432
-1127.56
-947.932
-64.6528
-449.401
-265.559
-874.725
-190.053
-853.283
-855.592
-29.9146
-19.3951
-799.952
-1102.34
-1057.75
-1054.94
3.85787
-851.467
-468.289
-900.748
-844.993
-724.083
-740.526
-521.759
-514.118
-87.9315
-776.882
-816.428
-840.341
-5.23104
-6.2548
-1062.42
-917.707
0.787167
5.4167
-1112.47
-1103.56
-711.684
-548.9
-905.463
-1063.85
-1093.79
-1152.1
-833.296
-976.321
-910.288
-927.731
-1148.49
-1148.2
-1067.19
-767.806
-800.859
-804.118
-1152.95
-1156.41
21.7935
-573.166
-798.449
-863.772
-631.579
-498.425
-1046.19
-806.152
-1059.2
-1084.65
-825.366
-940.509
-122.595
-727.682
-666.154
-898.952
-900.697
-864.44
0.207633
-38.5074
-989.046
-1055.93
-891.596
-626.573
-1057.98
-976.404
-1038.03
-864.15
-823.281
-684.475
-604.361
-1093.07
-899.338
-900.073
-821.012
22.807
10.2863
-789.915
-92.3049
-880.503
-595.12
-796.131
-514.776
-541.825
-825.941
-4.91182
-627.445
-87.8714
-1028.02
-37.2335
-73.8391
-892.174
-1075.34
15.251
-1139.33
-838.17
-765.173
6.37498
-665.632
-25.9068
17.7381
-820.625
-817.337
-1081.46
-1074.58
-406.475
2.33197
-1022.37
-828.356
-1008.94
-780.083
-1078.71
-112.15
-1051.36
-439.326
-92.0863
-34.0509
-1138.81
-858.776
-851.634
-536.888
-1104.22
-1101.59
-1101.5
-120.749
-1029.25
-834.182
-865.954
-872.332
-5.5913
-1041.74
-947.691
-1135.21
-1011.94
-877.209
-691.864
-1120.8
-1109.94
-827.172
4.71461
-555.995
-564.2
-103.071
-1006.25
-700.667
-883.745
-823.592
-10.485
-1115.3
-1078.41
-1074.78
-1051.15
-1031.02
-1135.7
-1071.17
-998.571
-853.422
-868.338
-565.198
-458.306
-894.354
-112.031
10.33
16.1618
-519.332
-14.1606
-76.5857
-1028.79
-732.236
-1027.65
-1119.73
-1067.86
-1055.93
-404.014
-1036.44
-1050.43
-1012.69
-1045.23
-1.35048
-517.585
-521.814
-942.594
-590.697
-22.0313
3.44375
-0.207821
-800.525
-316.169
-1075.69
-1071.18
-1029.36
-706.449
-1149.62
-1090.4
-1092.16
-821.371
7.90113
-1148.56
10.652
15.7272
-997.271
-1001.35
-811.599
-315.766
-789.202
-913.177
-528.438
-891.87
-731.386
1.35941
-980.44
-664.499
6.0203
-702.338
-2.9274
-1000.74
-1089.9
-146.51
-150.504
-672.173
-905.705
-929.856
-1062.15
-899.401
3.20556
-714.976
-105.933
-1097.49
-1029.37
-1018.61
-503.874
-848.487
-788.263
-801.279
-1096.02
-870.947
12.545
-543.131
-844.61
-728.246
-1076.16
-775.743
-29.9476
4.40446
-753.746
-469.802
-865.191
-822.458
-930.283
-11.7591
-1139.65
-749.996
-1077.91
-1107.84
-1019.38
-224.811
25.307
-738.161
-845.745
32.7548
-1109.37
-748.525
-914.934
-922.878
-747.591
-892.678
-1100.74
-1026.93
-859.549
-813.604
-832.817
-958.302
-985.328
-647.528
-897.646
-531.434
-871.936
-651.758
-772.33
-1072.33
-1.78939
-909.02
-1136.69
-918.589
-951.079
-80.8653
-766.34
-34.0658
-948.933
-205.348
-809.533
-918.656
-754.384
-108.622
-771.753
-1162.3
-127.613
-0.569092
-881.12
-1022.82
-1035.89
-1132.88
-39.2344
-797.939
-1060.55
-958.78
-768.36
-731.831
-841.088
-876.727
-770.376
-21.3051
-778.96
-755.623
-888.744
-644.912
-855.094
-516.714
-826.144
-961.797
-844.787
-880.658
-590.087
-879.553
-808.304
-808.972
-577.257
-36.7977
-17.115
-929.713
-766.903
-937.381
-748.89
-961.618
-816.096
-828.338
-649.993
-585.335
-865.921
-812.994
-833.841
-1162.81
-1021.42
-980.18
-990.091
-860.252
-996.101
-38.9474
-858.09
-880.009
-1015.27
-970.73
-856.861
13.8092
-3.1934
-848.154
-1155.87
-634.056
-1097.43
-517.372
-917.107
-1063.68
-1046.88
-964.048
-717.612
-972.727
-522.251
-824.62
-753.382
-771.387
-502.425
-904.646
-876.276
-594.209
-776.716
-510.202
-1097.01
-850.484
-1035.58
-794.729
-1047.9
-892.549
-1074.7
-508.685
-844.46
-594.838
-975.01
-927.589
-775.694
-826.991
-1007.31
-834.255
-732.374
-803.201
-972.389
-861.562
-813.63
-854.287
-1050.45
-222.589
-1152.92
-869.886
-787.224
-891.626
-1050.18
-811.886
-1.42561
-857.486
-1033.6
-48.9588
-326.907
-1010.23
-807.283
-1047.89
-1071.77
-1031.02
-62.042
-913.954
-847.289
-1065.78
-1032.03
-422.571
-204.623
-1071.52
-1054.44
-853.432
-1073.35
-817.338
-832.967
-903.651
-1098.63
-1079.34
-423.606
-532.16
-615.213
-854.825
-789.635
-789.397
-870.97
-1155.61
-1156.05
-328.333
-811.551
-1071.62
-975.761
-1046.04
-763.753
-52.3646
-1128.86
-608.414
-1076.27
-1070.09
-845.25
-842.625
-618.504
-908.358
-857.178
-1005.81
-78.6139
-1009.9
-1027.19
-533.783
-1017.29
-826.878
-1044
-1036.5
-1022.22
5.01126
-884.7
-1156.61
-749.484
-822.509
-995.633
-586.808
-466.903
-205.186
-255.997
-38.0465
-985.823
-861.283
-24.7813
-850.4
-963.681
-1001.67
-995.979
-1093.03
-876.36
-681.635
-994.122
-947.867
-904.756
-1086.64
1.00234
-841.528
-775.077
-583.373
-1079.95
-1073.64
-841.432
-820.539
-849.123
-1015.6
-1028.8
-609.58
-637.973
-851.945
-857.099
-1157.75
-328.833
-795.591
-870.779
-2.94183
-857.389
-1078.96
-600.061
-659.812
-668.854
-1080.04
-640.559
-400.149
-1016.74
-844.312
-0.431502
-874.312
-2.96616
-886.64
-300.684
-307.32
-841.72
-759.927
3.60965
-537.028
-702.001
-710.932
-884.629
-1010.32
-1034.97
-1054.33
-288.337
-1152.17
-868.949
-188.07
-884.136
-604.444
-457.492
-631.508
-12.1922
-844.832
-37.8115
-530.86
-326.052
-845.269
-849.527
-676.344
-3.04359
-1008.58
-1070.99
-958.192
-917.659
-903.817
-167.796
-1053.09
-593.923
-1155.33
-953.808
-856.498
-515.609
-92.6279
-998.562
-772.989
-912.011
4.22009
-69.8446
-605.963
-635.43
-878.019
-1046.43
-891.486
-1079.03
-1139.31
-851.341
-1103.61
-760.815
-919.808
-47.6868
-43.2581
-1001.36
-914.35
-1065.55
-1097.13
-16.4763
-385.528
-247.84
-79.0846
4.71072
-855.333
-805.551
-888.268
-892.114
-904.157
-155.175
-1089.89
-970.248
-1037.58
-949.586
-988.887
-954.658
-1032.69
-755.215
-648.036
-441.02
-840.83
-924.314
-850.178
-856.178
-1041.89
-1034.75
-916.715
-898.754
-12.2913
-1077.27
-629.624
-871.988
-859.012
-502.253
-539.903
-1092.48
-1045.3
-970.562
-1075.62
-951.52
-961.709
-498.195
-8.3413
-729.451
-994.444
-940.671
-1063.92
-1043.43
-567.125
-880.959
-939.732
-65.9812
-1106.45
-854.982
-411.081
-813.147
-1027.34
-952.07
-1081.38
-893.387
-917.711
-1053.12
-865.552
-868.503
-1138.65
-1.22861
-104.977
-1045.45
-857.073
-6.54481
-900.398
-816.856
-544.751
-761.635
-1126.33
-1018.05
-883.854
-843.472
-813.637
-939.156
-906.271
-1003.09
-1107.69
-922.54
-624.297
-698.848
-657.711
-748.293
-49.4699
-711.432
-1126.74
40.4533
-851.253
-1079.23
-58.4151
-1075.84
-1058.96
-1003.8
-860.049
-1026.93
-1041.57
-998.973
-860.141
-21.2724
-1021.25
-1069.61
-999.312
-975.359
-1150.44
-1088
-451.615
-1032.69
-74.3785
-1033.07
-795.65
-215.684
-524.219
-732.072
-551.621
-540.999
-850.174
-879.825
-1074.88
-1057.6
-758.693
-139.891
-699.418
-783.468
-773.718
-761.559
-51.0098
-760.494
-1141.95
-835.497
-892.35
-1043.01
-129.572
-607.879
-859.083
-1008.13
-856.842
-969.059
-582.295
-548.166
-1050.85
-1032.34
-224.262
-812.306
-1067.63
-1061.01
-815.776
-830.377
-1084.68
-939.915
-720.945
-911.916
-1084.24
-326.321
-1059.52
-0.298018
-741.097
-1123.59
-1122.79
-1021
-1158.72
-1162.08
-1014.45
-1034.75
-927.453
-1139.05
-1098.53
-520.19
-1072.58
-116.668
-765.692
-1005.71
-1019.02
-1036.67
-1047.63
-730.464
-744.127
-1131.34
-595.623
-5.07082
-866.554
-1025.51
14.5985
-426.488
-874.703
-750.791
-1013.13
-1025.83
-1157.48
-84.9649
-129.267
-1019.2
-1036.87
-1121.94
-1111.01
-1021.36
-244.914
-856.272
-148.936
-1032.55
-876.625
-843.183
-886.279
-746.62
-978.026
-343.548
-983.266
-789.043
-1007.41
-907.928
-4.2199
-1160.14
-807.026
-193.312
-613.243
-913.879
-891.907
-988.893
-63.4726
-1075.38
-337.107
-808.676
-872.572
-853.397
-924.737
-318.951
-191.67
-1047.85
-1058.11
-133.781
-1154.92
-295.774
-860.525
-1069.7
-1042.79
-1158.44
-327.128
-899.368
-558.452
-861.26
-886.142
-756.22
-951.524
-945.344
-899.822
-897.87
-1035.03
-1013.83
-870.103
-966.83
-957.929
-718.575
-1151.19
-549.708
-608.99
-792.389
-562.36
-845.045
-574.695
-1009.18
-590.316
-1150.13
-651.956
-392.124
-994.686
-1004.41
-872.414
-905.583
-895.601
-822.85
-552.715
-870.751
-868.073
-31.9603
-34.8646
-1083.16
-920.627
-1056.36
-1046.56
-1088.73
-1008.68
-722.959
-962.284
-303.976
-589.149
-1073.56
-900.363
-639.289
-1010.89
-622.585
-372.904
-990.167
-1011.35
-1045.67
-1081.93
-925.939
-16.1671
-1049.08
0.383476
-875.314
-907.671
-542.598
-878.442
-2.43473
-5.63365
-849.114
-869.739
-41.625
-923.392
-991.672
3.02979
-807.216
-40.1761
-10.674
-617.893
-565.559
-889.574
-633.725
-66.183
-1063.3
-191.591
-1093.24
-866.856
-704.36
-802.155
-123.521
-1108.12
-869.436
-999.492
-872.396
-927.469
-963.353
-6.76696
-872.381
-1059.02
0.244048
-886.386
-940.59
-831.971
-1005.18
-860.306
-880.433
-863.398
-117.528
-853.381
-935.482
-879.011
-879.232
-100.195
-972.486
-978.406