/*--------------------------------*- C++ -*----------------------------------*\
| =========                 |                                                 |
| \\      /  F ield         | OpenFOAM: The Open Source CFD Toolbox           |
|  \\    /   O peration     | Version:  2212                                  |
|   \\  /    A nd           | Website:  www.openfoam.com                      |
|    \\/     M anipulation  |                                                 |
\*---------------------------------------------------------------------------*/
FoamFile
{
    version     2.0;
    format      ascii;
    arch        "LSB;label=32;scalar=64";
    class       surfaceScalarField;
    location    "10";
    object      phi;
}
// * * * * * * * * * * * * * * * * * * * * * * * * * * * * * * * * * * * * * //

dimensions      [0 3 -1 0 0 0 0];

oriented        oriented;

internalField   nonuniform List<scalar> 
188514
(
0.00399006
-0.00378507
7.32558e-05
-0.000271751
-0.0268886
-0.00112897
0.0157896
0.00708802
-0.0264693
0.0071587
-0.00138389
-0.0034957
0.000304754
0.00334049
-0.000133604
-0.00409329
0.000165179
0.000454056
0.00844689
-0.00923326
-0.00029463
0.00120201
0.00799297
-0.00101564
0.00153996
-0.0181318
0.0207055
-0.00309891
0.00125678
0.00324997
-0.00357207
9.81499e-05
0.000281726
-0.00496279
-0.0224667
0.00779833
0.0300133
-0.0120285
-0.0180243
-0.000689704
0.0276615
0.00444432
-0.00199862
-0.0340916
-0.00463401
0.0375823
0.00241669
-0.0350803
-5.29526e-05
-0.00340911
0.000892018
0.00302539
-0.000410123
0.00477117
-0.0284899
0.0236033
0.000123355
-0.00388574
0.00224015
0.000238119
0.00134217
-0.0198586
0.0166084
-0.000728906
0.00188992
-0.00313622
0.00192076
-0.000604679
-0.02235
0.0349757
-0.0120287
5.76684e-06
0.00264345
0.00116704
-0.00348318
-0.000447884
-0.0038968
0.00881419
-0.00392978
-0.0009346
0.000680311
0.00357734
-0.000269755
-0.000368619
0.00282876
-0.00240703
-6.14574e-05
0.0048677
-0.00218663
-0.00284416
-9.12915e-05
-0.0110026
0.00676659
0.00104036
0.00313064
0.00430497
-0.00107612
-0.00348201
0.000286728
0.0041911
-7.44137e-05
0.000226682
0.0018829
0.000282627
-0.00357273
0.0013742
-0.0166101
0.019115
5.25152e-05
0.0525012
-0.0344378
-0.013349
-0.00510886
0.0254647
-0.022244
0.00239247
-0.0055414
0.00311832
0.0168756
0.0061181
-0.00231012
0.00390356
-0.00145901
-0.000180966
0.00232213
-0.0012552
-0.00341664
0.00298174
-0.00360968
0.000654998
-2.58586e-05
-0.000520737
-0.00184484
-0.00150806
0.00390866
-0.0020446
1.84648e-05
-0.00316998
0.00696121
-0.00349691
-7.97038e-05
-0.00389154
0.00086889
-7.83619e-05
0.00263126
0.00127215
-0.00354648
-0.000332631
-0.0127698
0.0253355
-0.0123353
-0.00308851
-0.00614169
0.00547379
0.00272888
-0.0021248
-0.000793757
0.00359037
-0.00299245
0.000190249
-0.00131851
-0.00313111
0.000544576
-0.0048797
0.00351446
0.000331562
0.00418462
-0.00466664
-0.000628774
0.00102872
0.00293116
0.000701356
-0.00367415
8.72131e-06
-0.000572588
0.00348516
-0.0031031
0.000103883
-0.000134283
0.00288643
-0.00263131
-0.000142368
0.002214
-0.0026513
0.00029251
-0.00371406
0.00455302
-0.00306701
0.00222317
0.0079857
-0.00379059
-0.00466987
0.000326054
-0.00931914
-0.00740482
0.0184073
-0.00242644
0.00701377
0.000433314
-0.00853134
0.00110244
0.00158598
-0.00539126
5.59242e-05
-0.00259737
-0.00204202
0.00404936
0.000574809
-0.00362149
0.00259614
0.000234448
0.0196137
0.0105396
-0.0221897
-0.00729349
0.00439395
-0.000583979
-0.00342738
-0.000376925
-0.00473538
0.00172469
0.00499937
-0.00166159
0.00120424
-0.000606685
-0.0045959
0.000143664
0.0311269
-0.0113289
-0.0228817
0.00133582
-0.000973919
0.00234704
0.00221545
0.0124844
-0.0106745
-0.0113689
-0.00749907
0.0188432
-0.0125099
-0.000101931
-0.00268152
0.00268546
-0.000380289
0.0280243
0.00814071
0.00630841
0.0158214
-0.0227347
0.000748939
0.00798142
-0.00612508
0.000293139
-0.00200296
0.00167967
0.00166135
-0.00405709
0.000650738
-0.00642766
0.00119026
0.00577836
-0.000535097
4.23496e-05
0.00467835
-0.00056472
0.0318985
0.0061425
-0.00573213
0.0162128
-0.0353491
0.0189464
0.000735269
-0.0266788
0.00459843
0.0322317
0.000348955
-0.028639
-0.000556886
-0.00782094
-0.000431332
0.00410381
-0.00108124
0.00558255
-0.00126625
8.01812e-05
-0.00366028
0.000837997
0.00440012
-0.00153833
0.000812329
-0.00368209
-0.000733112
0.0186303
-0.0250524
-0.0162721
-0.0434394
0.0454663
0.00341142
0.00288435
0.00446269
0.0242628
-0.0258624
-0.000866041
-0.00156634
-0.00191216
0.000534509
0.00298692
0.0154122
-0.00991759
0.0134812
-0.0193694
0.00517355
0.000376846
0.00255903
-0.0282632
0.00362974
0.0268744
-0.00219561
0.0616047
0.00152103
-0.0571713
-0.00593208
-0.00713136
0.00399331
0.00215313
0.000957513
0.00232512
0.00201345
-0.00431085
0.000843438
0.0036957
-0.00164039
0.000499578
-0.00037567
-0.00332896
0.00293146
0.000780671
0.00243593
0.000725216
0.00243445
-0.00661703
-0.000361937
-0.000167672
-0.00327512
-0.00260291
-0.000720023
-0.00594494
-0.00457234
-0.000504614
0.00452269
-0.0270009
0.0220091
0.00163734
0.00428246
-0.000862096
-0.000798875
-0.0061577
-0.000525848
0.000266119
-0.00514698
0.00295164
0.00106334
0.000736269
8.32258e-05
0.000733926
-0.0121632
-0.0016765
0.015574
-0.00153378
-0.0158651
-0.0295451
0.00797707
-0.0169388
0.00426069
0.0111618
0.00274003
-0.00294019
0.00238365
0.000178669
-0.00445519
0.00297691
0.00179428
-0.000299511
-0.00329785
-0.00186365
0.000726653
0.00770663
0.020164
-0.0240368
-0.00515413
0.00561958
-0.0122315
-0.00606135
-0.00539114
0.00219051
0.00337151
-0.000149259
0.0031302
-0.000543524
0.00041495
0.00178718
0.00180948
-0.00360174
-1.50286e-06
0.00371853
-0.00187166
-6.95894e-05
-0.00187313
0.00466204
-0.000920055
-0.00377944
-0.000323565
-0.00119739
-0.00571179
0.00424085
0.00114123
0.000354572
-0.00446028
0.00441037
-0.000366693
0.000445014
-0.0061326
0.000514207
-0.0339253
0.0152339
0.0156664
0.000175409
0.0245213
-0.0236371
-0.00336958
0.00433033
-0.0207784
-0.00449244
0.0114669
0.0120455
-0.0248126
-0.00578149
0.0164186
0.000631034
-0.00760613
-0.0159177
0.0226028
0.000391895
0.000991152
-0.00983674
0.00291599
0.00581563
0.00147793
-0.00469991
0.00174515
0.00122694
-0.0166897
0.0205952
-0.00112492
-0.00186073
0.00355791
0.00185097
-0.0043969
-0.00103063
-0.0290897
0.00606532
0.00132522
0.00166613
-0.00275725
-0.000164185
-0.0139658
-0.0109187
-0.00159575
-0.00441247
0.00662134
-0.000541449
-0.00789114
0.00622372
0.000123896
0.0218699
0.0168145
0.0175059
0.0110452
-0.00546074
0.000478867
0.00357771
7.09869e-05
0.000997887
-0.00500415
0.00482346
-0.000832561
-0.0021453
0.000951773
-0.000376247
0.00189867
-0.00399986
0.00100039
-0.0256934
0.0170404
5.52134e-06
-0.00562906
-0.00164276
0.00117712
0.00311251
0.000154519
0.000392631
-0.00208735
-0.00310607
0.000627437
0.00312685
0.00110827
-0.00452951
8.60933e-05
-0.0291993
0.037778
-0.0042089
-0.00494349
-0.00447509
0.004292
-0.000559428
0.00074811
-0.000774433
-0.00137631
0.00289909
-0.000749939
0.002526
-0.00273388
-0.000586366
-0.0216471
0.0093192
-0.0019807
-0.00101134
-0.00237466
-0.000231138
-0.00253287
0.00442336
-0.00164466
-0.000253065
0.00105303
-0.00374442
0.00016794
0.0339682
0.00174037
0.000631093
0.0300372
0.000571957
-0.0071718
0.00461844
0.00140608
0.0010376
-0.00584721
-0.00178789
0.00606244
-0.0149668
-0.0185159
0.000167021
0.0242901
-0.0243816
-0.00140941
0.00138764
0.00573743
-0.0091269
0.00194393
0.00647431
0.00175346
0.00678678
-0.0402509
0.0288938
0.00432112
-0.00149735
-0.00132434
0.00319203
-0.000299131
-0.00478436
0.00177288
0.00129216
0.0021935
-0.00422536
0.00186695
0.000308891
0.00458589
-0.00204251
-0.00468421
0.0216172
0.000752647
-0.00243977
0.004652
-0.000540675
-0.00526083
0.00340694
0.00517978
-0.00329263
0.00652473
-0.00301199
-0.00385153
0.000322426
0.00339604
0.000765442
0.0023252
0.0267009
-0.0266502
0.0010742
-0.000404524
0.00195304
-0.00452585
-0.00456993
0.00181899
0.0044106
-0.00235931
-0.00207522
2.90601e-05
0.00365499
-0.00295597
0.000157453
-0.000857376
-0.00761929
0.00433797
0.00477383
-0.00131147
0.0145465
-0.0190065
0.000225123
-0.0251483
-0.00927074
0.000636943
0.0158048
0.0123161
-0.0298818
0.00123918
0.0330717
-0.0139957
0.00496278
0.00119716
0.00322246
1.43333e-05
-0.00322529
0.0026002
0.00033385
0.00033982
-0.00407543
0.000796769
0.00355149
-0.000289563
0.040422
-0.0423846
0.000973409
0.00537519
0.0109493
-0.0157999
-0.00946455
0.0131293
0.00202419
-0.00377109
0.000737098
-0.00363702
-0.00583067
5.23993e-05
0.0102619
-0.00510684
-0.00176363
-0.0033726
-0.00961
0.00054129
0.00159934
-0.000361968
-0.00176637
0.00148393
-0.022041
0.00963274
0.0125841
0.00328808
0.0640434
-0.00282163
-0.00207633
-0.000998067
-0.000708661
-0.00473105
0.00555592
-0.000316159
-0.000552215
-0.00127093
-0.00456645
0.00108739
-0.00245517
-0.00107497
0.0004082
-0.0194351
-0.0070707
4.70854e-05
-0.00457294
-0.0211861
0.0144048
0.00420051
-0.00106781
0.000903133
-0.00815465
0.00554254
0.00138939
0.00132441
-0.00374819
-0.00079689
0.00155087
0.00300537
-0.00401822
-0.000261119
0.000221031
-0.008749
3.95105e-05
0.00212069
0.00356197
-0.0016115
0.0065202
-0.00559447
-0.000812943
-0.000197574
-7.31097e-05
0.00327095
0.000458842
-0.000142761
-0.00263949
0.000106537
-0.00266703
-0.000238676
0.00362628
-0.000717892
-0.0176586
-0.00199636
-0.00348302
0.00600261
-0.00162055
0.00268167
-0.000149299
-0.00321865
9.06377e-05
-0.00405398
0.00546082
-0.00116958
-0.000222563
0.0192797
-0.00429265
0.0011476
-0.0160217
0.0220778
0.000584912
-0.00277353
-0.00197287
0.00449687
0.000282189
0.0059291
-0.0177043
0.0138077
-0.00156705
-0.0018183
-0.00332167
0.00144761
-0.00426145
0.00302603
0.00155261
-0.000300284
0.000106191
-0.00062403
-0.00255894
0.00194552
-0.000758906
0.0101042
0.0286337
0.00222335
0.0103752
-0.0026269
-0.00224952
0.0109985
0.0070953
0.00297583
-0.00337278
0.000655312
-0.000234789
-0.011321
0.0157525
0.00259704
0.00966963
-0.007373
-0.00541749
0.00229375
-0.0176782
0.0101664
0.000533828
-0.00724059
-0.00593939
-0.00453589
-0.0288607
0.0412969
-0.02326
-0.00623524
0.0283891
-0.00528078
-0.0238917
-0.00121052
-0.0197671
0.0137683
0.0165332
-0.00949172
-0.0265252
0.0113582
0.016046
0.0065599
0.00104706
-0.00579018
-0.000889075
-0.00420227
0.000693248
-0.000537933
-0.0168495
0.00494225
0.000182025
0.00351453
-0.000735996
0.0213041
-0.0274387
0.013019
-0.00595481
0.014068
0.011797
-0.00128542
0.000847642
-0.00386602
0.00222448
0.000838165
-0.00239155
-2.62027e-05
0.00162809
-0.00263007
-0.00141197
-0.00143718
-0.00499504
0.00652926
-0.000210234
0.0275568
-0.0302532
-0.00664326
0.00838088
-0.0305872
0.0059082
0.0202677
0.00306098
-0.00745018
0.00481126
-0.00103327
-0.00375408
0.00517507
-0.00176157
0.000358144
-0.0042356
-0.000700894
-0.000407421
-0.00149446
-0.00020568
0.00259123
-0.00271984
0.00205595
0.0197318
-0.0154681
-0.00154106
0.00118396
0.00797907
-0.00487151
0.00324878
0.00438135
-0.0106619
-0.0270529
0.0339232
-0.0226529
0.00141982
-0.00163508
-0.0253493
-0.00195947
0.0209516
0.00498521
-0.00850856
0.0251871
-0.0178679
0.00283005
0.00270142
-0.00253
-0.00136744
0.00115231
-0.00063495
-0.0337821
0.00514014
-0.00244682
0.00119983
-0.000300855
0.0268099
-0.0070307
-0.0209092
0.00321633
-0.00516779
-0.00523233
0.0101458
2.98742e-05
0.00249748
-0.00066259
0.00943372
-0.00134046
0.00103675
-0.000111642
-0.00107181
0.00511197
-0.00130712
0.000929068
0.00236248
-0.000467904
0.00280389
0.00143291
-0.00579447
0.00161715
-0.0354658
0.0136105
0.0197962
0.000787591
-0.00157534
-0.00316439
-0.000277796
-0.0019545
0.00293337
0.000196608
-0.00991291
-0.0217472
0.00271435
-0.00420329
0.000156637
0.00476128
-0.00341675
1.94201e-05
0.0424021
0.00525011
0.00648936
-0.00119821
-0.00543639
9.65896e-05
0.00969813
7.89362e-05
-0.00323579
0.0028437
0.00145259
-0.00155356
-0.018538
0.0322555
-0.000307905
-0.00285469
0.00400577
-0.000714686
-0.000408107
-0.00319066
5.20179e-05
0.000274831
0.00424963
-0.0192548
0.0152854
-0.00452668
-0.00285461
0.000682386
0.00227578
-0.000114718
-0.0049754
0.00179362
0.000460361
-0.00226792
0.00428738
-0.000205353
0.00532074
-0.00692159
0.00214697
-0.000536223
-0.000498112
0.0250932
-0.00376673
-0.000631036
-0.0167334
-0.00473352
0.00554449
0.00314507
-0.00845351
-0.000440188
0.0073784
-0.000720363
0.00628572
-0.00311176
7.02558e-05
0.00566197
0.000728652
-4.27129e-05
0.00902373
-0.0201251
0.00349571
-0.00193936
0.00362612
-2.5521e-05
-0.00196824
-0.00204634
-0.00154835
-0.00184482
0.00104334
-0.00444092
0.0006872
-0.00230671
0.00416484
0.00097864
-0.00166021
-0.000811476
0.00274238
-0.000271674
0.0632445
-0.0593624
-0.00137982
0.00265391
0.00236488
0.00331042
-0.0103792
0.0187083
-0.00277318
0.0281993
-0.00983169
-0.0184519
6.77111e-05
0.00199117
-0.00661171
-0.00125369
5.73123e-05
0.00136933
-0.000139266
0.0285205
-0.0302101
0.00181146
-0.000172564
-0.0319692
0.0187167
0.0197931
-0.0298669
-0.00412837
0.0258687
0.00877935
-0.00349099
0.00445267
-0.000573597
-0.000391118
-0.00698796
-0.0103498
0.0215379
-0.00515348
0.0234153
0.0017005
-0.00116704
-0.00753625
0.00285711
-0.00651981
0.000793768
0.0152767
0.0232347
-0.0100056
-0.00130498
-0.00103749
0.00340959
-0.00114114
-0.00384698
0.00323487
-0.000193499
-0.00134849
0.00545037
-0.00227045
-0.0138754
0.00795679
-0.00500452
0.00477974
-0.00422997
0.000121084
-0.00065836
0.00234808
0.00247362
-4.71059e-05
0.00193578
-0.00263357
0.00148335
-0.00282902
-0.000565313
0.0130222
-0.0258748
0.0139278
0.000595017
-0.0244811
0.0271416
0.00773653
-0.0334457
0.0143587
0.000173361
0.00260443
0.00151094
-0.004529
0.000406668
0.0319585
-0.00887625
-0.0317465
0.0078301
0.00546019
0.000956381
-0.0012587
0.00576062
0.00085201
-0.00234377
-0.00542061
0.000209117
0.000344718
0.00429402
-0.00432056
-0.000273689
0.00151458
-0.00917926
0.00360424
0.00406958
0.00488756
-0.00269845
-0.000744687
-0.00396218
0.00897621
0.000543445
0.00270685
0.000610936
-0.0173448
0.0228157
-0.000702847
0.0045787
0.00253078
0.00313481
0.0361539
-0.0114317
-0.0109875
0.0114318
-0.00734858
0.0036743
-0.00555521
0.00226021
-0.000535402
0.00388815
-0.00150467
0.000977771
-0.00432435
0.00425524
0.000785815
-0.000691012
-0.00555361
0.0231271
-0.00885905
-0.00358896
0.000747567
8.41399e-05
-0.00348304
0.00135846
0.00118969
0.000988311
-0.0027851
-0.000509015
-0.00080335
0.00279216
0.00269661
-0.00528756
-0.000579595
0.00524725
-0.00260846
-0.00207248
-0.000544044
-0.0125676
-0.0192011
-0.000442216
-0.00274362
0.00275104
-0.00016045
0.000153965
0.00553573
-0.00206924
-0.00250816
-0.000981556
-0.0290887
-0.000145728
-0.00329704
-0.000839732
-0.00034429
-0.0214105
-0.012146
0.0347599
-0.000583334
0.00382293
-0.00271457
0.00037969
-0.00686358
0.00275511
0.00413136
2.51903e-06
0.0278626
-0.0125221
-0.0195205
0.00501699
0.0166367
0.0142049
0.000442658
-0.00288423
0.00367954
-0.000658914
0.00459439
-0.0039867
-0.00015377
-0.000429136
-0.000179399
0.00393422
0.000928335
0.00539315
-0.00285898
0.00952451
-0.00370607
-0.000340584
0.00140719
0.023437
0.0131979
-0.00152111
-0.0161554
0.0291829
-0.00626602
0.00473251
-0.0201238
0.00826497
0.00865254
0.000136224
-0.00620702
-0.00267085
-0.00430383
0.000306456
-0.0040389
0.00160141
0.0037486
-0.00126277
-0.00119551
-0.00122604
-0.00285237
0.00476335
-0.00161837
-0.000275436
0.00184609
-0.00458866
0.000390326
-0.00181272
4.14952e-05
0.0173661
0.00648827
0.00411204
0.00151253
-0.00338209
0.00216684
-0.00027574
0.0108831
-0.019615
0.00867969
0.00657468
0.0018875
0.000914973
-0.00273677
-3.50164e-05
-0.00336718
-0.000446189
-0.00162433
0.00370009
-0.000783374
-0.00340405
0.00551599
-0.00127865
0.00152631
0.00350925
0.000195262
-0.00844073
0.0258077
-0.0186764
-7.11701e-05
-0.0250858
-0.00509444
-0.00352131
0.00334817
-0.000166197
0.0085396
-0.00704721
0.00265874
-0.00383459
0.00398666
-0.00158205
-0.000880096
0.00221297
0.00132011
-0.00331765
-0.00019652
-0.00405027
-0.000637098
0.00435187
0.00026825
0.0299355
-0.00687004
-0.00705841
0.00106101
0.000945603
0.0051007
-0.0046587
-9.65483e-05
-0.00132657
0.00620226
-0.00273672
-0.00220196
0.0211674
-0.0280469
0.0109726
-0.00169329
0.00245071
-0.00183936
0.0161689
-0.0115094
-0.0117407
0.0151814
0.0283396
-0.00165431
-0.00350232
0.000159053
-0.000157784
0.00655757
-0.00377206
-0.00160581
0.0226077
-0.0073816
-0.00546579
0.000820855
0.00456053
-0.00746088
0.00204605
-4.69653e-05
-0.00392963
-0.000361892
-0.0522868
0.0511078
0.0013574
-0.00449449
0.00362975
0.000986831
-0.000109933
-0.00462889
0.00092215
0.000216192
-0.00422938
0.00100752
0.00575428
0.000128669
-0.00751383
0.000965835
-0.00259919
0.00345191
-0.000968459
0.000179373
0.00307462
-0.0044684
0.00118407
0.000182634
-0.00551515
-0.00432586
0.000417
0.00431669
0.000758781
-0.00169122
0.00130401
0.00315147
0.000144289
0.00459489
7.02551e-05
-0.00451218
-7.56353e-05
0.00293723
0.00342789
0.00397169
0.022737
0.0335802
0.00464519
0.00447948
0.00104173
0.00411727
-0.000648025
-0.000436607
0.00572548
-0.00117902
-0.000235654
-0.00358528
-0.00373622
-0.00249778
0.0277582
-0.033138
0.00382583
-6.4948e-05
0.000474502
-0.00443637
-0.000154951
0.00743728
0.00045342
-0.0069187
-0.000911022
-0.00364353
-4.84915e-05
-0.000763157
-0.00442989
0.000108295
-0.00892105
-0.0192121
0.00350277
-0.00343296
0.00274457
0.000813298
-0.000128477
0.0318263
-0.00598555
0.000852098
0.000870883
0.0148362
0.0196085
-0.0311669
-0.00221071
0.00383974
-0.000582342
-0.000173686
0.00158894
-0.0047435
0.00220263
0.00094734
-0.00105858
0.00441697
-0.00300976
-0.000373932
-0.0264782
0.0159272
0.0197839
0.00130178
0.0122735
-0.00527244
0.000434279
0.00839405
0.0114772
0.00567111
0.0210283
0.000324096
-0.000613928
0.00237176
-0.0062883
-0.00216843
-0.0184451
-0.00851295
-0.0114468
0.0298359
0.00184828
0.00106797
0.0109367
0.0175006
0.00312689
-0.000907317
7.92926e-06
-0.00412934
0.0053351
0.000162909
-0.0016597
0.00366708
-0.000113956
-0.000906074
-0.00343695
-0.00097521
0.0043172
0.000106419
-0.000665356
0.00438764
-0.000419245
-0.0049393
8.97147e-05
0.0043534
0.000496161
-0.00037408
-0.0145929
0.0215215
-0.000934835
-0.0030046
0.00685314
-0.00336205
-0.000581852
0.0017491
0.00229198
0.000187361
0.00499093
0.000161845
0.00319247
0.00146231
-0.00399423
-0.00066967
0.00138364
-0.00341199
-0.000823398
0.00496501
-0.00249709
-0.00164095
-0.00322919
0.00460358
-0.000167412
5.10324e-05
0.000936884
0.00447462
-0.00349898
-0.000507796
-0.00226637
0.000362183
0.000982109
0.00265544
-0.00359715
-4.6987e-05
0.00156111
0.00333575
0.000583404
-0.00272334
-0.00466012
-0.000407531
0.00246619
-0.00572541
0.000128194
0.00236574
-0.00393154
0.00219449
-0.000658023
0.0119821
-0.0100323
-0.00487178
-0.00124234
0.0203915
-0.0160526
-9.18241e-05
-3.82202e-05
0.00337588
0.000968495
4.78881e-05
-0.0004655
0.00464541
-0.000537775
-0.00109487
-0.00019537
-0.00485775
0.000235202
0.00312023
0.00036834
0.00454104
-0.00355768
-0.000253113
0.00464291
-0.000823482
-0.00223213
-0.000213606
0.000495549
-0.00287151
0.00277231
-0.000132708
0.00311438
0.000233372
-0.00373466
0.00011408
0.00740918
0.00129542
0.00350597
-0.00115617
-0.000257507
-0.00184061
0.00171044
-0.00240705
-0.00124555
-0.0475474
0.00924224
0.00888012
0.0138759
-0.0116258
0.00247056
0.00174687
-0.00300621
0.000891007
-0.0131518
0.00042254
0.00289186
-0.00443508
0.00136125
0.000182573
-0.0031504
-0.00061138
-0.00471801
0.00218078
0.00300499
-0.000463061
-0.0025797
-0.00116946
-0.00118477
-0.000807325
0.00383926
-0.000150474
-0.0101102
-0.000279515
0.0407985
-0.0163761
0.00116722
-0.0013724
-0.00218968
0.000456971
0.0112062
-0.0268512
0.0143372
0.00288621
-0.00408976
-0.000478126
0.0159387
-0.0102441
-0.0035026
-0.00219184
0.00138146
-0.000590958
-0.00384803
-0.000255323
0.000690255
-0.00483044
0.00706662
-0.00194078
-0.00708803
-0.00233304
0.00391971
-2.62502e-05
-0.000575883
0.00189366
-0.00183687
0.000946236
-0.000355905
0.00544726
-0.000794608
0.00279037
0.00154456
0.000298996
0.00436803
-0.000374146
-0.00166418
-0.000886193
-0.00186964
0.00236149
0.000864999
-0.000197657
0.00311444
-0.00304079
0.000191569
0.00228749
-0.00308021
0.000633234
0.000162604
-0.000710959
0.000635489
0.000157073
-0.00341697
-0.00121482
-0.00405018
-0.00307679
0.00028086
-0.00428261
0.00145537
0.000570441
0.00513219
-0.00110218
-0.00132115
-0.000245006
-4.43631e-05
-0.00349884
-0.000609132
0.00119758
0.00106808
0.00223944
0.00388338
-0.00401359
-0.0011439
0.00556732
0.00460085
-0.00101567
-0.00226531
-0.000612701
0.00440469
-0.00157216
-0.000626186
0.0031205
0.00018562
-0.00406772
0.000762527
-0.00114172
0.00426408
8.45364e-06
0.00139948
-1.78197e-05
-0.00374736
0.00359013
-0.000226571
0.000406748
-0.00298933
-0.000891284
-0.00114154
-4.78468e-05
0.00148161
0.00282545
-8.27753e-06
0.00172125
0.00263278
0.00116678
-0.0443805
0.0244156
0.013263
0.0133119
0.0124099
0.00404386
0.00356823
-0.00274987
0.000646226
0.000883298
0.000801674
0.00467079
-0.00113872
0.0184979
-0.00864854
0.0212823
-0.000650553
0.000926328
-0.00480209
0.00206003
-0.00226561
-0.000802988
8.21285e-05
0.00191378
-0.0011287
7.60631e-06
-0.00195832
4.89663e-05
-0.0054314
-0.0277928
6.09717e-05
0.00659885
-0.00598421
-0.000123808
0.0100809
0.00282744
0.00888043
0.0115156
0.0163723
0.0405608
-0.0225609
-0.0128751
-0.00473884
0.000876763
-0.00306312
0.00279305
-0.000721735
0.000777235
-0.00404156
0.00312118
0.000143625
0.00134638
0.00630147
-0.00582277
-0.00186538
0.0069271
-0.00105739
5.76127e-05
-0.0059399
0.000460801
0.0152905
-0.0153735
0.00550002
0.0117063
0.0209943
0.00272024
0.00511253
0.000230938
-0.000697957
0.000317736
0.00668396
-0.0048003
-0.00249309
0.0197346
0.0110339
0.0103474
0.0188143
-0.0247388
-0.00622438
-0.00278694
-0.00161137
0.00319566
0.00121799
0.000725287
-6.05851e-05
0.000353016
-0.00186219
-0.000229364
0.00322234
-0.00471364
0.000346304
0.00275381
0.000888288
-0.000549508
-0.0271674
0.0119279
0.0105267
-0.00812312
0.00563204
-0.00189867
-0.0113702
-0.0160098
-0.0047127
-0.00429677
0.0011319
-0.000788319
-0.00333434
0.00396715
0.000161234
-0.00303516
-5.04848e-05
0.00494602
-0.000345785
0.000773836
0.00116401
-0.0275056
0.0168602
0.0148337
-0.000712285
-0.0192278
-0.00915609
-0.000709706
0.0455338
-0.00170831
-0.00934612
-0.0313146
-0.00440706
0.00463893
-0.00132639
0.00378395
-1.92892e-05
-0.00353296
-0.00146978
-0.00419383
0.00146056
-0.000484655
0.0215124
-0.00820759
-0.0126204
-0.000569997
-0.00637632
-0.000122747
0.00397954
-0.00658378
-0.000643963
-0.00515253
0.00197848
0.00157423
0.000191567
0.00482029
-0.000591344
0.00420686
-0.000118592
0.0046518
-0.00346664
-0.000231124
0.00128901
0.000379306
0.00309935
0.000419632
-0.00412815
0.000600332
-0.000124588
-0.00320794
-0.00041811
-0.0199731
0.020603
0.00459756
0.0115066
-0.00136742
-0.0140075
0.00378657
-0.00113115
0.0111077
0.0335889
0.000406017
0.0185782
0.00211579
0.00337566
0.000583199
0.000377293
-0.00230617
-0.00211097
0.00498801
0.00138508
0.00129071
-0.00283657
0.0143725
0.000812559
-0.00294945
-0.000717716
0.000249942
0.0017886
0.00627283
0.00056843
-0.00300109
-0.000138249
0.00431734
-0.00149918
-0.00308486
0.000276252
0.00534438
-0.0031531
1.12185e-05
0.00349362
-0.000755659
-0.000429829
0.00277941
-0.00283903
-0.0011477
0.00815033
0.0130605
-0.00994879
-0.0101331
0.0131197
-0.0151255
0.0106139
-0.0116951
0.00306571
0.00393019
0.00275343
-0.00200077
0.00229032
0.00087344
0.000225738
0.024511
-0.00301513
0.00111572
-0.00295764
0.000554799
-0.00207351
0.00385646
-0.00329163
0.00140701
-7.88244e-05
0.00288496
-0.00214898
-0.000461587
-0.00230617
-0.00431614
-0.00333049
0.00934193
-0.00170172
-0.00787767
-0.0431513
-9.9723e-05
-0.0043615
-0.00025324
0.00149407
-0.00392955
0.00388583
-0.00257058
7.41818e-05
0.00203303
-0.00192099
0.00173329
-0.00183338
0.000721472
0.00516982
-0.00127321
0.003665
5.43433e-05
0.00342995
-0.00227908
-0.001509
0.000387566
-0.00352763
0.000494424
0.00311102
0.000569106
-0.00432683
0.00061454
0.00333974
-0.000439304
-0.000609192
-0.000200723
0.00488501
-0.00435622
-0.000544316
-0.00010054
-0.000659914
4.59045e-05
0.00334259
0.00201378
-0.00411191
-0.00109049
-0.00241458
0.00602669
-0.000179707
0.00536547
-0.00175012
-0.00101168
-0.0569581
-0.001239
-0.000547952
0.00400258
-0.00357108
0.000304449
0.00314486
-0.00291067
-0.000777439
0.00880894
0.000847052
0.00770791
-0.0033148
-0.00579907
-0.0114779
0.000864297
0.00367572
-0.00111127
0.000559509
-0.0193223
0.0321114
-0.0180733
0.00245995
0.0028413
-0.00295581
-0.000220425
0.000314681
-0.0069028
-0.00102196
-0.00116896
-0.00245274
0.000540552
-0.00158791
-0.000715715
-0.00017881
-0.00102184
-0.00432365
-0.000105953
0.00301957
-0.000676477
-0.00641039
-0.0512601
-0.000358345
-0.00411098
-0.000832435
8.64399e-05
0.00427702
0.000455238
0.0195498
0.000399272
0.00326588
-0.0043267
-0.000351058
-0.0268134
0.00023412
-0.0017269
-0.00167057
0.00290994
0.000515245
-0.0191911
0.0231177
0.00452313
-0.00749517
-0.0141321
0.00343763
0.00436316
-0.00257158
-0.00153217
-0.000267345
-0.00287707
-0.000233821
0.017158
-0.00155441
0.0006518
-0.00214917
0.00211063
-0.000594705
0.00250812
0.00222416
-8.26199e-05
-0.000587946
0.00340183
-0.000306085
-0.00276178
0.00263842
0.00304732
-0.00285304
0.00327748
0.000260872
0.00534148
-0.00174539
0.00284645
0.000981939
0.0240346
-0.033351
-0.000604172
-0.0153086
0.00185988
-0.000204177
-0.00426515
0.00472032
-0.000610553
-0.00886742
0.00183974
0.00212155
0.00133983
0.00337974
-0.00154079
-0.000329683
-0.0318633
-0.0129835
0.0207374
-0.00682084
0.0194073
0.00632086
-0.00563172
0.0051022
4.76846e-05
0.000531629
-0.020911
-0.00149966
-0.0086434
-0.00139524
-7.48175e-05
-0.00464728
0.00365983
0.000770872
-0.000733666
0.00287808
0.000150801
0.00176952
0.000232674
0.00389833
-0.000193376
-0.00303171
-0.00065801
-0.00483251
0.026196
-0.0215865
2.12784e-05
-0.00351745
0.000389855
0.00110295
0.00408972
0.00205561
0.00325576
-0.0044273
0.000440432
0.000682122
-0.000643093
0.00416092
-0.000317085
-0.00215628
-0.00032092
-0.0178944
-0.000876023
0.00122316
0.00168909
-0.00170369
0.00167587
0.000270521
-0.0217624
-0.00858275
0.00104768
0.00400197
-0.000663168
9.02494e-05
0.00380531
0.000420217
-0.000310027
0.00299288
-0.000283931
-0.00461198
-0.0193384
0.0230048
0.00190116
0.00658152
0.00197873
-0.0032271
0.00146595
0.00100489
0.000722366
0.00129493
-0.00146592
-0.000593957
0.0221924
-0.00228838
-0.010379
0.0308589
0.00280494
0.00402814
-0.000643634
-0.00316635
-0.000201618
0.000752794
0.00262441
0.000651581
-0.00307958
-0.000632295
0.00201074
0.00173716
-0.00433799
-0.00951104
-0.00047116
0.00105544
-0.000173088
0.00196902
0.00400034
0.00519316
0.000419954
0.00521229
-0.00304311
4.31281e-05
-0.0116246
-0.0050289
-0.00109048
0.00575754
-0.00472099
7.6227e-05
0.00403698
-0.00288321
-0.000622863
-0.00057805
0.0237072
-0.00340516
-0.0267806
0.00220731
0.0273341
0.0027778
-0.00132589
-0.00578521
-0.00130131
-0.00370773
-0.000621735
0.00381493
0.000492437
1.04019e-05
0.000291409
-0.00407902
-0.000355739
-0.000584222
-0.0106461
-0.0180365
-4.03886e-05
-0.0255748
-0.00330878
-0.00161804
-0.0122773
0.0339562
-0.00560644
0.00242882
-0.000211163
-0.00483906
-0.000570569
-0.00617962
0.000479616
0.00268164
0.00137133
-0.000336464
-0.00408998
0.00103124
-0.000268617
-0.00199495
0.00207202
0.000984198
0.00428629
0.00087709
-0.0179372
0.0197896
0.0089008
-0.0259205
0.00939624
0.0140924
0.00204883
0.00341328
-0.0015529
0.00517305
-0.00439554
-0.000417195
0.00265227
-0.000354366
-0.000344781
-0.0004674
0.00313399
-0.00297929
0.00042855
-0.00318388
0.00430855
-0.00182414
-2.6563e-05
0.00375818
-0.00185456
-0.00172896
-0.000174672
0.00256669
0.0024207
-3.67463e-05
-0.00832086
0.00499509
-8.99909e-05
-0.00385632
-0.00110733
0.0028489
0.0004907
0.0044845
0.000551513
-0.000110786
-0.00327602
-0.000254405
0.00411732
-0.000641956
-0.00565857
0.00583863
-0.000493734
-0.000593658
-0.00443411
-0.000689505
-0.00292413
-0.000437379
0.00318514
-1.88405e-05
-0.000406589
0.00107876
0.0324065
-0.0312533
0.00216071
-0.00185981
0.00681119
-0.00533507
0.000358822
-0.00242896
0.00307268
0.000134849
0.03354
-0.0406971
-0.00287258
-0.00345396
-4.31416e-05
4.43861e-05
-0.00268321
0.00584415
0.00147767
-0.00469183
-0.00204394
0.00011166
-0.0085114
0.0032669
0.00487373
0.00209418
-0.00142789
0.00196214
0.00101036
-0.000714679
-0.00222819
0.00668796
-0.00306998
-0.00137594
-0.00234096
-0.000517059
4.17429e-05
0.000206721
0.00169648
-0.00317232
-0.00102813
0.0108371
0.0046979
0.00368169
-0.000759378
0.00284086
-0.00378827
0.00111519
0.00407196
7.89224e-05
0.00504301
-0.00875571
-0.00107235
0.00201176
-0.00167816
3.37407e-06
-0.00353981
0.000283796
0.00387409
-0.00193295
0.00103529
0.00195342
0.00402053
-0.00798524
0.00195944
0.00800411
0.00347223
-0.0145716
0.00106324
0.00444712
0.000357707
0.000605112
-0.00344314
-0.0016611
-0.00510615
-0.000822634
-0.00390496
-0.00217428
0.00771595
-0.0017268
-0.00312812
0.000192185
-0.00662175
0.00371018
-0.000401727
-0.00219707
-0.000707735
-0.00733744
0.00438047
0.00389677
0.00457342
-0.000225804
-0.00468659
0.00437581
0.000495053
0.000262649
-3.02212e-05
-0.00537162
0.0058141
-0.000392301
0.02687
-0.000259988
0.0130735
-0.0222244
0.000616273
-0.00186229
0.000910273
0.000511789
0.00177894
0.000558593
0.0307448
-0.0175229
0.00442129
-0.000896704
0.00334256
0.000353265
-0.00259908
0.00296154
-0.000191692
0.00220515
0.000236838
0.00341725
0.000111657
6.30728e-05
0.00802615
0.00135785
-0.00193759
0.00391787
-0.0043323
0.00207472
-0.00163285
0.00485616
0.000447478
0.000380034
-0.000903528
0.00348534
-0.00296879
0.000391601
-0.00502791
0.0027347
-0.00430052
-0.000230898
0.0029668
0.00152538
-0.00370129
0.00135776
0.00122093
0.023248
-0.00548456
0.00170933
-0.0065014
0.00127949
0.00369963
0.00136089
-0.001434
0.00388966
-0.00218752
-0.000278474
-0.00385999
0.000665758
-9.79408e-05
-0.000774207
-0.00282237
-0.000250052
0.0035192
-2.93669e-05
0.0230327
-0.00920767
-0.00149375
-0.00229232
0.00287476
3.46033e-05
-0.000653124
-0.0063414
0.00107344
0.00316867
0.0248593
-0.0108103
0.00272073
0.00128671
0.000396842
0.000137757
-0.000303834
0.00246061
0.00842593
0.00942611
-0.00577664
-0.00158919
-0.00184974
0.00258415
-0.00310172
-0.000515172
0.000867669
0.00335125
-0.000848186
-4.4602e-05
0.00327265
-0.00626543
0.0028122
-1.84369e-06
-0.00419273
0.00724684
0.000232183
-0.00190686
0.000181652
-0.0010265