/*--------------------------------*- C++ -*----------------------------------*\
| =========                 |                                                 |
| \\      /  F ield         | OpenFOAM: The Open Source CFD Toolbox           |
|  \\    /   O peration     | Version:  2212                                  |
|   \\  /    A nd           | Website:  www.openfoam.com                      |
|    \\/     M anipulation  |                                                 |
\*---------------------------------------------------------------------------*/
FoamFile
{
    version     2.0;
    format      ascii;
    arch        "LSB;label=32;scalar=64";
    class       volVectorField;
    location    "10";
    object      U;
}
// * * * * * * * * * * * * * * * * * * * * * * * * * * * * * * * * * * * * * //

dimensions      [0 1 -1 0 0 0 0];

internalField   nonuniform List<vector> 
77035
(
(18.4178 3.81156 3.94331)
(9.97268 4.15391 3.6042)
(8.96261 4.51066 4.46799)
(15.0734 1.98699 -7.27806)
(17.463 2.86612 -6.33367)
(8.64635 -3.34422 -3.3394)
(9.79585 -2.26682 -2.33032)
(7.24417 -3.79702 0.30226)
(11.4093 3.85605 2.29875)
(7.3478 -4.20455 0.146517)
(7.83607 -2.46972 0.178102)
(7.62909 -2.38023 0.105899)
(8.83766 0.517367 0.0851524)
(8.17676 0.122495 -0.0200649)
(13.9818 -1.64688 -8.76476)
(7.98945 -0.102612 -0.0118521)
(2.92384 1.7501 4.35608)
(7.25941 -1.7449 -0.597462)
(13.0121 0.721874 3.19176)
(5.90652 1.07249 2.00944)
(7.85876 0.0918178 -5.32217)
(11.6859 -3.7969 3.04963)
(18.4633 3.12787 2.41838)
(14.5855 2.06026 -5.36191)
(7.38978 -0.413292 3.44409)
(10.6628 -1.72721 -2.45514)
(16.1713 0.503337 -6.14625)
(14.8838 1.3674 -6.83232)
(11.9209 -0.547071 -3.02814)
(7.80973 0.027167 -0.00123242)
(15.0984 -1.75274 0.541183)
(4.74859 0.416589 -0.347971)
(5.13748 3.12541 -1.16452)
(2.44689 1.79527 0.772118)
(2.50797 0.099783 -0.449194)
(10.9802 2.71418 -4.69452)
(2.48388 1.43589 1.84189)
(11.8564 -2.06614 -5.19548)
(5.92306 2.09243 1.00988)
(2.86805 1.92383 0.0552807)
(17.5482 0.963915 4.14765)
(6.36384 -0.501404 -1.18508)
(11.311 -1.73468 -3.1553)
(16.0344 2.87578 -3.49063)
(0.202011 2.83031 -0.263175)
(1.69467 2.08864 0.034635)
(5.96889 -0.911655 -3.16413)
(-0.960248 2.55332 -1.15215)
(3.47354 2.19895 1.12618)
(15.8667 -0.159112 -4.69197)
(15.6213 -2.69808 -4.6627)
(7.64517 -1.17962 -3.23048)
(13.403 -1.5395 -5.97131)
(3.27394 3.35819 -1.61021)
(13.8744 0.692004 -3.01632)
(8.85617 -1.62623 -3.11675)
(11.2734 4.18699 -5.12558)
(17.0378 2.38684 -3.53189)
(8.67907 4.09574 -0.658057)
(17.4491 3.17373 -0.408205)
(7.62567 -2.40788 5.14341)
(5.87444 -2.27627 3.67664)
(11.5583 3.55513 -4.83027)
(8.19392 1.36953 -0.783846)
(0.349838 1.59579 -0.0977015)
(2.76217 2.89927 0.633642)
(7.66778 -0.104181 0.369003)
(14.885 1.05907 -5.66008)
(11.6946 -2.29649 -2.41007)
(7.84034 0.173014 0.542463)
(6.99806 3.01759 -0.408763)
(15.1286 1.62999 -5.50034)
(10.8619 0.573161 -4.19615)
(4.13017 0.487695 -3.31355)
(8.70242 1.07502 -0.573144)
(8.34832 -0.587418 0.051479)
(12.5967 1.56993 -1.46009)
(15.9459 0.990162 3.94316)
(7.13525 -2.15884 -4.32284)
(19.8036 3.41527 -2.0738)
(16.7379 4.58618 8.98236)
(13.5493 4.97036 9.40017)
(4.12279 2.10911 1.17449)
(10.4384 1.45894 0.686284)
(8.9852 -0.822416 1.30297)
(2.69587 -1.29452 -1.1083)
(-0.180021 3.56248 0.827132)
(6.78727 4.60916 -2.48829)
(7.92761 1.32241 1.79135)
(15.5165 1.43324 0.277188)
(16.9959 0.340433 -2.22206)
(2.13755 2.18126 -0.603205)
(4.05773 0.366548 0.735073)
(20.8507 1.56172 2.95509)
(14.7245 2.88177 -7.15888)
(17.1882 0.00620482 -0.745015)
(15.2547 -0.418258 -1.46595)
(11.5436 -3.51067 -0.585749)
(8.45326 3.77587 3.7462)
(19.7285 3.34696 4.66431)
(11.1979 1.03923 -4.19322)
(3.73631 0.630596 0.566246)
(12.6722 1.08649 -3.97337)
(1.81695 2.04319 1.28512)
(10.0925 0.619978 -0.586841)
(3.15719 0.582291 0.483446)
(19.7042 5.92666 2.03748)
(13.238 -3.86865 -4.06194)
(13.6108 -2.35636 -4.53621)
(7.58399 -0.896581 -0.137543)
(-1.00991 -0.677557 -0.123926)
(6.79629 -0.491984 3.73368)
(12.0879 1.52948 -4.39518)
(17.9458 0.805977 -4.30094)
(15.0518 0.521453 -6.07314)
(15.8824 1.19871 4.64697)
(4.9877 -2.01391 3.64347)
(6.63294 0.0110818 -5.00287)
(5.96006 -2.70307 -3.54941)
(7.28885 1.07735 -4.49242)
(7.32878 0.343469 -0.000381754)
(8.43469 -3.35776 -1.78766)
(6.34778 1.40956 0.695482)
(6.28807 2.01608 0.0012168)
(3.63068 -0.523302 -0.805639)
(7.7441 0.0904941 -0.00277238)
(12.9234 -3.02416 0.778842)
(13.3049 -2.7646 -7.01681)
(5.66324 0.045657 1.4162)
(12.5972 4.20395 4.98519)
(11.1638 1.01601 0.970489)
(9.53717 0.0188483 -3.32466)
(12.7081 2.53565 5.6634)
(10.9282 -0.92195 -3.14304)
(11.8432 -1.35753 -2.80529)
(5.01455 1.89203 0.279501)
(4.72753 1.04325 0.0748736)
(14.7476 0.215537 -3.77938)
(8.26842 0.34332 2.24848)
(1.94751 -0.68235 1.70227)
(1.18449 0.00954152 1.4372)
(7.9757 -0.00601905 -0.0145066)
(11.4197 -2.15895 -6.11334)
(13.6357 1.82355 3.94037)
(7.65005 -3.32886 -3.99732)
(11.4162 -0.241797 -6.37181)
(17.3681 3.32938 1.75329)
(15.8459 1.60451 -2.01584)
(14.179 -1.51987 5.33718)
(12.1958 -1.44517 4.67895)
(5.97642 -0.276228 0.868719)
(18.4687 0.659216 -2.79578)
(16.8288 1.03697 -6.23048)
(17.1447 1.53277 -5.47204)
(9.8437 -0.0317434 -0.243666)
(9.00946 -0.115878 -0.111961)
(6.69346 2.40315 -3.84194)
(5.22745 -0.578057 -1.78744)
(7.70244 0.313871 -0.00525259)
(4.24939 -0.13782 -0.748222)
(10.0924 -1.10125 -3.74046)
(7.71596 -0.691926 -3.64112)
(13.4228 -2.88121 1.58401)
(11.5438 -1.13298 3.46848)
(2.53373 -1.91045 -0.983292)
(1.51973 -0.173986 -2.15382)
(7.3801 -0.850889 -1.07368)
(8.22205 -0.69853 0.0422101)
(14.2191 1.47994 -5.9774)
(6.97202 0.0332008 -3.75258)
(7.45554 0.610382 -3.85813)
(7.36034 0.980236 -3.61846)
(7.84431 -0.210589 0.0409859)
(7.84301 -0.155539 0.0449741)
(8.73376 3.0678 -3.86917)
(15.8739 3.15309 -5.24631)
(14.3118 2.55254 -3.88779)
(11.0732 -2.50079 -3.79027)
(8.05128 -1.00365 0.0331659)
(8.25999 -0.54506 0.0567174)
(6.84145 -1.07485 -1.30948)
(8.29457 3.39046 0.479736)
(15.4204 2.83977 -6.36122)
(4.0871 -0.0614783 -2.10906)
(15.0382 4.3475 -0.200401)
(13.4337 -0.824512 -2.38278)
(5.88221 0.180491 -2.53268)
(20.5387 0.455747 -0.767632)
(8.48446 -3.66588 -3.71013)
(10.9222 -5.50124 3.44455)
(11.7118 -2.67642 -5.93625)
(4.80197 0.783265 -1.96464)
(4.84129 0.797966 0.450055)
(16.7448 1.57793 -0.0862867)
(13.5314 4.18124 4.48983)
(7.49086 -0.840462 -4.0621)
(8.20658 -2.28899 -4.39476)
(3.41037 -2.17068 -1.30652)
(7.43155 0.593203 0.774412)
(3.97853 -0.557944 -0.393144)
(4.89151 0.757387 -3.96771)
(8.50182 -0.246077 -3.87489)
(4.71475 -1.11322 -3.03214)
(13.9246 2.31388 -1.18712)
(9.97409 -3.12183 -3.93221)
(2.73636 1.49598 -1.31392)
(9.90286 -3.73228 -2.29326)
(17.1006 0.351473 -5.04914)
(13.539 1.44505 -7.09072)
(19.668 -0.326539 3.28481)
(11.7857 2.21472 0.751512)
(8.80069 -0.226599 3.07114)
(7.27263 -0.313056 -3.78055)
(8.28826 -1.11255 -3.88645)
(22.1484 -1.95376 1.68081)
(1.73239 -0.969121 -1.23855)
(7.1948 0.108454 -0.17223)
(15.8819 2.62831 -6.11444)
(5.99296 0.732549 2.02681)
(5.48795 -2.23862 -3.38293)
(18.1746 2.64549 6.41081)
(11.4495 4.07044 -6.18243)
(13.7844 0.259985 4.9414)
(13.0597 -0.381867 -1.18736)
(16.2082 -0.205946 -3.03288)
(7.5371 0.710504 -1.33182)
(14.6397 2.39047 3.70104)
(6.13153 -1.60244 -0.0273626)
(4.68632 1.21812 1.41376)
(5.82535 1.9757 -3.44985)
(7.69405 -0.0381342 -1.66903)
(11.5723 -2.02178 -0.941094)
(6.17478 -3.65695 0.266064)
(5.02427 1.40577 0.228721)
(6.42128 0.0729589 0.611259)
(12.2159 -3.74892 -6.34105)
(19.6141 -1.10386 4.04423)
(4.88761 1.7504 -1.04446)
(16.8735 2.43344 4.41603)
(6.70646 -0.207973 -0.683265)
(5.78048 -0.834283 -1.15425)
(15.5467 0.540544 -1.99761)
(14.9123 -1.31292 -2.80976)
(7.40595 -0.800082 3.50487)
(9.48459 0.245793 -2.84998)
(8.52224 5.79496 -3.18595)
(6.24118 1.16431 0.591639)
(9.31681 -1.99062 -3.21517)
(13.5019 -4.73632 -5.16711)
(5.05473 0.0242289 -4.40254)
(16.391 2.35016 -0.690184)
(1.86814 1.41211 -1.28434)
(2.08622 0.360927 1.0304)
(7.57419 0.391599 -2.54919)
(8.52735 6.71878 0.228704)
(4.67044 4.18068 1.44372)
(5.76487 1.76625 -0.553748)
(7.31155 -1.15207 0.0948058)
(7.96014 2.82807 -3.7937)
(14.1542 -2.83987 0.266296)
(9.20023 -0.000127967 1.95378)
(6.31488 -0.180194 1.41611)
(7.94097 0.753086 0.774799)
(6.99756 2.46581 1.36561)
(3.07269 1.50735 0.495098)
(-0.450199 1.10993 0.649683)
(10.0978 -0.783023 -5.72606)
(16.9391 2.47635 -4.18813)
(9.10186 -3.3873 -5.93284)
(7.15564 0.992003 -0.014916)
(0.97244 1.78018 -0.0119025)
(6.8515 1.2949 -4.35537)
(6.24662 -0.199472 0.844446)
(7.76221 -2.71664 -4.34785)
(11.1393 -3.61305 -3.21587)
(14.0795 1.45754 0.0316753)
(9.87249 0.764384 3.06406)
(11.0853 -0.0334675 4.23095)
(5.27622 1.29032 -1.09274)
(6.95121 0.364208 -0.0269026)
(10.401 4.34369 1.2036)
(10.3812 4.68508 -0.219079)
(7.29617 -2.47019 3.66543)
(1.86112 2.03236 2.54393)
(20.4173 -1.24616 4.63209)
(17.4632 -1.657 -5.61251)
(12.2025 1.83553 -2.92348)
(4.08972 2.97835 0.0142104)
(9.42065 -3.86325 0.479621)
(9.44831 -3.81932 -3.42468)
(8.32533 -1.74547 -2.96192)
(7.79807 -2.4017 -4.56302)
(6.90391 -0.306897 -4.05513)
(6.89896 -0.159197 0.104447)
(4.77701 1.66252 2.72338)
(2.76883 -0.349876 0.368758)
(10.7186 1.55314 -4.46108)
(7.79603 -4.94998 -5.57932)
(14.4006 3.54966 4.94694)
(16.9011 -1.32816 -0.0213203)
(11.8305 -1.58574 -7.70391)
(8.73409 -0.414791 4.12977)
(6.00635 -0.0124137 -0.206926)
(5.84889 1.3152 0.885144)
(8.21924 2.06427 2.18054)
(9.50885 -0.742763 1.58585)
(7.5954 -0.381319 -0.260884)
(11.0906 -2.24849 -1.22183)
(21.3813 1.43246 1.07147)
(2.80225 -0.703207 -0.553902)
(7.39844 -0.0403104 1.28366)
(7.93779 -1.36375 -4.93679)
(9.05935 2.66072 -4.82327)
(8.0174 5.5203 -0.872245)
(0.591899 0.0374902 -0.56497)
(1.12235 1.96808 -0.480019)
(2.45275 -0.741371 -0.816369)
(5.49007 2.39851 -1.84138)
(5.33781 1.41582 0.33828)
(11.7432 3.11126 1.91694)
(11.9706 2.66694 1.51156)
(0.355464 1.96399 4.218)
(12.2505 0.217915 3.9837)
(7.3408 0.934475 0.0307785)
(6.99027 1.61648 -0.493855)
(8.17669 0.134032 -0.00512284)
(17.3659 1.26781 -6.31067)
(13.4787 4.4105 -0.603257)
(10.8239 -0.737638 -2.45248)
(8.42813 -1.90846 -3.4514)
(8.25169 -1.56336 -4.66204)
(19.6862 -6.29411 2.37344)
(14.673 -1.83248 2.68231)
(7.14107 -0.813699 -0.374008)
(8.31923 -3.94748 -3.75814)
(13.7651 -0.0119905 -7.97151)
(5.94473 0.84633 0.33857)
(11.8065 -5.70846 1.46377)
(4.65433 2.91838 3.48302)
(8.48282 0.246722 -1.11916)
(6.92533 -2.69502 -3.08695)
(7.06073 0.320627 -3.55985)
(22.476 -2.07361 5.0213)
(6.88909 3.75114 0.578123)
(16.8579 2.05563 -4.61266)
(11.943 1.53687 -8.78076)
(10.8527 2.68615 1.52474)
(-1.34576 4.08025 4.39632)
(18.7832 2.04018 -0.0500338)
(7.3352 0.650216 -0.0285192)
(15.6337 -3.63614 -4.07289)
(22.6098 4.06606 6.33306)
(7.22289 0.436172 -0.0476514)
(17.0869 3.00231 1.40935)
(6.9451 0.232367 1.42912)
(8.85246 -3.61251 -4.05719)
(8.25499 1.15072 1.89743)
(7.82901 4.13673 1.49157)
(8.87572 4.42421 1.17059)
(15.9684 1.94878 4.75556)
(17.4028 -8.16787 -4.87665)
(17.0191 -5.09449 -4.80875)
(2.95029 -1.33573 -1.60567)
(11.4459 -4.17412 -3.11536)
(9.52261 -0.135954 -0.167649)
(16.0195 -1.72233 -0.718797)
(9.4535 -1.03772 0.0292923)
(12.5546 0.926484 6.60903)
(9.7638 -3.3851 -3.2257)
(1.61533 -0.462759 0.862191)
(14.8352 3.33721 6.84249)
(11.2773 0.890913 -4.99154)
(16.23 2.57562 -5.65509)
(11.917 2.87692 -6.18128)
(6.51677 -3.29965 0.0790225)
(20.8581 2.48197 1.02932)
(3.96809 -1.6814 -1.17283)
(8.83512 2.44905 2.43836)
(12.5495 -6.95056 -4.84999)
(18.1214 -1.4144 4.96525)
(8.74208 2.99328 -1.38355)
(19.6963 3.40765 -1.89962)
(4.54157 1.54417 -0.336292)
(2.98289 0.834851 -0.136336)
(14.0574 2.39458 -1.61463)
(8.91652 2.62881 2.48136)
(22.3428 -0.453055 0.158674)
(17.317 4.60413 1.30974)
(19.6299 -0.81747 -4.10598)
(3.4867 -2.80433 0.212992)
(10.228 -3.92112 1.41926)
(21.3366 -6.84359 2.72803)
(7.13628 -0.799097 2.34578)
(6.0911 -2.95004 0.128981)
(5.05974 -0.479222 -2.27479)
(8.48657 3.62836 2.47183)
(5.99878 -0.65077 -1.11202)
(13.0069 0.946586 -2.62486)
(10.2836 -2.70122 -5.66815)
(-3.514 -1.98166 -0.119218)
(9.83272 0.0794503 -1.80962)
(20.3478 -2.03248 4.60969)
(14.3737 0.0297139 -0.0173488)
(18.4618 -1.51153 -3.4771)
(20.7777 1.72021 2.3307)
(8.64433 -1.73992 -4.70647)
(9.12623 0.334663 -2.2175)
(7.33214 -2.0748 -4.83183)
(13.3433 -0.808535 -6.36689)
(21.9903 -0.0252138 4.42394)
(14.3018 -1.8393 -5.17937)
(1.39876 1.08963 1.63636)
(3.11 -0.767195 -0.526244)
(19.7918 -5.93807 4.72154)
(13.0714 -0.16194 -6.06112)
(16.671 -1.31878 -1.3969)
(9.4392 1.06282 -5.27142)
(19.1882 0.642088 5.7752)
(24.243 -5.55568 1.48061)
(13.4628 -4.84054 4.5937)
(8.62968 0.0460917 -0.0327459)
(22.2634 -2.60786 -1.02959)
(13.0492 -0.119596 3.03922)
(18.0662 -1.77287 -4.22512)
(19.3262 -0.8259 -5.21452)
(6.7425 2.46471 1.13124)
(11.922 -1.50799 -8.66395)
(8.21638 1.73353 0.784683)
(20.5023 -1.18046 -3.93593)
(11.0648 4.23685 0.983513)
(19.4345 -2.74699 0.0583538)
(16.599 2.96147 -6.53789)
(19.8511 -1.40785 -3.91048)
(2.65481 1.10085 0.854101)
(17.3563 3.57368 -0.974704)
(14.3636 -0.288973 2.66797)
(8.08589 2.01682 1.9662)
(8.24224 0.206329 -0.0149118)
(5.48988 -1.92141 -3.42802)
(9.98856 -2.84451 -0.00556011)
(4.1552 0.193369 -2.3249)
(6.67725 -1.9303 0.0864843)
(7.78894 -0.677234 -0.131987)
(15.775 -2.8725 -4.90459)
(11.0032 0.188497 5.29804)
(16.5459 -2.4347 -2.84803)
(17.9437 -1.5686 -8.022)
(18.9129 -2.35796 -3.37757)
(6.21432 2.72663 -1.26626)
(22.1017 -7.78802 0.354216)
(21.5792 -6.28161 3.81058)
(6.82002 1.74541 0.0308798)
(11.49 3.37202 -3.02115)
(14.6263 1.48925 -6.60703)
(23.8143 -6.77818 0.76927)
(18.8384 -0.328855 6.39536)
(11.7956 0.340304 -5.45601)
(19.2665 -0.0132999 9.21753)
(11.1551 1.27456 -5.57612)
(19.8753 -9.71656 -5.29747)
(21.2232 -1.39159 -1.58732)
(14.9767 0.778354 -8.18438)
(18.071 -0.202919 4.36995)
(20.599 -1.61773 -3.09627)
(10.2671 -1.55382 -0.90726)
(12.5731 4.13424 -2.72961)
(16.5232 1.39592 5.30017)
(0.922947 5.46818 -0.705473)
(2.11827 0.947573 -0.196669)
(23.8118 -3.38369 1.869)
(18.0132 -2.87608 -8.1291)
(18.7955 -3.32481 -3.25864)
(20.7881 0.0353347 6.70931)
(21.4776 -4.31284 -3.93122)
(18.5772 -0.0565454 -6.87449)
(22.847 -2.1767 6.097)
(18.8887 0.949718 6.38738)
(17.564 0.841823 5.64783)
(23.3137 -1.62085 1.7559)
(9.3703 -0.582625 -3.0853)
(7.99334 -1.50957 -3.5198)
(12.0819 -0.604436 -0.0406002)
(0.105955 1.4196 0.138436)
(-1.45135 0.571604 1.13405)
(13.8275 -1.86414 -0.557629)
(8.83 -2.02843 -1.69268)
(7.97944 -1.08329 -4.46838)
(5.28826 -0.0683349 -3.59253)
(18.5182 -0.395135 -6.27644)
(18.3312 0.252562 -3.4897)
(0.197079 1.58441 1.21701)
(0.99584 1.71129 1.72286)
(17.1231 -0.710607 -7.96031)
(7.39254 -1.42241 -0.947605)
(9.82886 0.0487069 -0.0986062)
(11.0432 1.70707 -6.2694)
(7.15379 -1.24621 0.0568571)
(18.2319 -7.29118 4.10007)
(9.48428 -1.19117 1.2307)
(14.1717 0.54459 4.81671)
(14.6491 -6.22056 -6.90762)
(11.6601 0.304784 0.284046)
(9.69341 2.48182 -0.57389)
(17.7683 -5.35408 -4.75297)
(19.9925 -0.0110059 6.31657)
(22.4688 -5.18315 -4.44864)
(8.89488 -0.324749 2.99825)
(7.61795 2.29842 -1.77915)
(20.668 0.751445 4.0446)
(20.2275 -0.890669 3.20912)
(14.1774 1.786 5.08234)
(11.6368 -1.14759 -7.22718)
(7.97127 0.0537124 -4.7024)
(13.8272 0.870342 1.34871)
(13.3958 -2.17192 -10.4241)
(15.6247 -4.9215 6.6995)
(8.93591 0.805549 2.31241)
(14.3808 1.53722 -8.2325)
(8.10288 0.920865 4.6217)
(18.6587 1.35231 -3.51455)
(-0.137141 0.884415 -2.46611)
(7.06163 0.782898 -2.74446)
(4.05581 0.162298 0.45495)
(11.4089 5.75406 2.26541)
(19.6914 0.175497 -3.65244)
(15.9104 2.93843 4.3526)
(16.0016 -0.850509 -7.76903)
(16.1771 0.68219 -6.85607)
(20.1918 -1.46393 0.348294)
(19.4703 -0.438958 0.691778)
(0.764228 0.0391874 0.908454)
(16.6958 2.06049 -7.63874)
(14.4515 -0.0127447 -3.37723)
(22.1863 4.35529 0.683784)
(11.1202 -4.0213 -0.419627)
(8.96965 -2.33117 1.5063)
(13.0792 0.969699 -8.5485)
(13.2984 0.519186 -7.37996)
(7.35767 -0.593078 -2.26143)
(9.85 -0.30162 2.26168)
(8.30838 -0.387201 0.0361657)
(13.4459 0.126498 -5.96054)
(19.1898 0.141376 2.58708)
(16.785 0.0275567 -5.24484)
(-2.03283 2.26731 -1.39007)
(9.08195 -0.49278 -5.65605)
(8.67753 0.191195 -0.0381208)
(12.3436 -0.253833 -3.76262)
(8.14134 -1.18097 0.592873)
(6.53895 2.47163 2.18509)
(17.1264 -0.0231072 2.93856)
(2.05152 -2.77044 0.862174)
(15.9946 -2.71097 -7.91718)
(9.91318 2.7999 -2.15542)
(8.28016 -0.657021 -1.88743)
(6.73755 1.27734 -5.77516)
(5.32353 0.561734 -1.67598)
(9.93013 -5.27322 0.161123)
(11.7421 0.090952 -3.53539)
(8.13237 0.326582 -2.43459)
(6.52213 1.44393 -2.5549)
(14.8471 0.96367 -1.70599)
(9.52611 2.87344 1.06918)
(0.816943 -0.00552674 -1.46442)
(0.301961 -0.598497 -1.43689)
(9.88061 0.00455808 -3.65423)
(5.2833 -3.51087 2.429)
(20.6352 -1.044 1.22478)
(12.4643 -1.8475 -7.31808)
(22.3101 -6.25708 -0.530262)
(7.29747 -1.47889 -0.370861)
(9.10763 -3.79863 -1.57493)
(5.76045 5.04675 -0.0981997)
(10.0001 4.00916 1.04491)
(13.2083 2.58851 3.89004)
(17.5493 -1.36032 -8.11636)
(16.5321 -2.11633 -7.84468)
(21.7185 -0.880239 -0.339705)
(19.3578 -1.79825 -5.99852)
(7.8482 -1.05012 0.0283512)
(7.74942 -1.2148 0.0460214)
(15.167 3.14483 0.537977)
(12.9019 -1.68424 -1.16467)
(5.29283 1.93644 2.68621)
(17.254 -5.49561 -5.25952)
(4.96857 0.684047 -1.21445)
(15.7403 0.823186 -0.759773)
(6.83041 -1.1232 -0.206943)
(11.7496 0.302882 3.49956)
(19.5199 -2.13712 6.55184)
(2.2697 2.38425 -0.622688)
(2.38358 2.4875 -0.318908)
(10.1852 -3.05134 -5.805)
(18.3308 -2.78147 -6.3385)
(20.4202 -3.64337 3.25643)
(15.5712 -1.9713 -5.90918)
(4.06175 3.74931 -1.64258)
(1.8916 -0.161669 -0.705282)
(9.702 1.74876 -0.101555)
(8.43905 -3.23588 -2.39357)
(5.41218 -1.8413 -1.83107)
(13.1731 0.0335238 -1.56246)
(10.8285 -3.32815 -1.18896)
(14.4622 -1.60774 -8.81451)
(8.72748 0.534425 5.1768)
(7.4016 3.2549 -4.52959)
(8.15237 3.1598 -3.65214)
(6.23748 0.471793 -0.00085887)
(15.4139 -2.67026 -8.47079)
(16.0631 0.743188 5.13139)
(20.3041 -1.19858 3.66836)
(16.1791 6.9648 -1.94277)
(4.71602 -0.199587 -0.592108)
(14.0916 -0.858696 2.03141)
(13.2411 0.464183 6.82014)
(3.19388 3.54069 0.662105)
(6.54989 3.63907 0.144472)
(5.66536 -1.53734 2.11684)
(7.25973 -0.547632 -1.2524)
(14.0744 -0.376159 -8.71607)
(4.36475 0.110408 0.803649)
(11.8016 0.773672 -6.60608)
(4.51644 -1.80936 -2.66455)
(4.6602 -1.33114 -2.05152)
(0.217953 1.61028 -0.676663)
(14.4891 -3.95584 4.69581)
(14.2892 0.03283 0.259252)
(20.0635 -0.812798 6.19547)
(2.94325 -1.91028 -1.61956)
(4.82313 2.51265 -2.58489)
(-1.39259 3.8134 0.415193)
(7.49987 1.91924 3.4383)
(6.51241 1.12594 0.780337)
(12.9373 4.16492 -7.56335)
(16.7006 1.34952 -6.12087)
(12.9388 5.46214 1.91249)
(3.36287 -0.0543413 0.481231)
(4.39146 -1.19157 1.61885)
(9.09249 -1.57485 -4.24071)
(14.2334 -4.13118 -3.66703)
(17.0695 -2.59896 -7.75144)
(5.69766 -4.47847 3.32474)
(7.57414 -5.13289 2.75859)
(21.9991 2.97555 6.23822)
(15.5764 0.459253 0.00824158)
(7.50151 -1.91012 -3.07889)
(6.43081 -3.04257 -4.30113)
(7.20424 -1.81086 0.0864793)
(6.18051 4.10022 0.518918)
(14.5057 -1.03722 -10.0464)
(3.29592 4.29851 -1.76708)
(9.19232 -0.0553804 -0.172907)
(5.19949 -2.04775 -2.2255)
(11.3886 -4.14065 4.75271)
(12.9379 2.35161 1.4843)
(16.0607 0.42395 4.58767)
(17.2948 1.05598 4.19025)
(7.88191 -0.54979 -0.96793)
(19.4133 3.67874 6.92826)
(14.8769 -2.05993 0.0334129)
(7.57605 -2.10248 -4.02477)
(8.26387 -1.68443 -2.98644)
(7.88883 0.136714 0.00357935)
(9.99423 0.0750383 -5.9719)
(8.07654 -0.176609 -0.00928366)
(12.2294 1.98699 -5.55606)
(12.4011 0.842535 -0.0225761)
(10.7543 0.884963 0.975568)
(14.6316 3.16253 -5.95177)
(21.6207 2.59844 -2.27365)
(9.43584 0.0364624 -0.362527)
(12.4841 -0.429695 4.5158)
(18.1068 1.30971 3.91093)
(18.1016 0.623106 3.33015)
(1.31267 2.44617 1.86722)
(2.74387 -3.55171 1.41676)
(1.92874 0.407019 -0.57867)
(1.55624 0.544195 -1.09709)
(13.3148 2.01309 -0.448222)
(7.2879 -0.804157 0.0523756)
(7.60931 -3.15662 -2.02419)
(8.60434 -0.00662639 3.00065)
(12.0873 -0.670642 -2.70747)
(14.6614 0.808609 4.23227)
(12.8609 0.455375 -2.86068)
(12.3954 0.426806 2.71229)
(9.15044 -0.209519 -0.822964)
(7.84246 -3.0429 -3.00386)
(8.58058 -1.40748 0.694554)
(15.4994 -0.982182 7.88717)
(4.73713 -8.99454 1.39769)
(12.4556 -0.43559 -7.58153)
(13.0013 -0.792384 -6.51584)
(15.62 2.08318 4.20628)
(7.66448 0.531989 -0.0175737)
(1.88382 -1.09728 -0.109076)
(10.5048 1.508 -2.32912)
(15.8055 -4.81028 -6.29209)
(14.5576 -4.31166 -5.4067)
(-0.219574 -0.00252258 3.6938)
(5.02047 1.17132 2.51893)
(4.62685 0.708027 2.8056)
(11.7987 3.22095 1.28128)
(7.33328 -1.11035 0.0391751)
(17.2674 -5.54011 -4.69256)
(16.0194 4.78732 -2.29221)
(11.1588 3.58299 2.29585)
(6.10897 2.62835 1.09842)
(9.00722 -2.42439 1.44897)
(23.708 2.16231 1.35545)
(3.11902 0.404353 0.938525)
(9.48041 0.00714724 -0.38022)
(7.18493 3.40437 0.99729)
(15.5193 5.67412 4.27983)
(14.9197 4.87844 2.4905)
(6.08617 2.20186 -2.47905)
(6.94456 5.36395 0.0639013)
(8.33466 -0.754289 -2.98194)
(7.88741 0.947216 -1.74554)
(13.3315 -0.227062 3.16539)
(17.9312 5.40432 -0.184283)
(6.4812 -4.34403 -0.434712)
(17.2024 -1.468 0.0532926)
(15.2314 -1.09702 -3.48333)
(8.21366 1.12811 0.0867358)
(7.77074 1.06729 0.622278)
(7.70734 2.33198 -3.52405)
(12.7545 -5.34395 -5.63239)
(2.18032 1.63682 -0.0712577)
(7.08884 0.880339 1.85994)
(6.80584 -1.93312 0.12695)
(9.36101 6.21223 -1.6294)
(13.1881 3.05157 2.43698)
(7.69212 -0.622248 1.59395)
(7.59293 0.118885 -0.0155043)
(8.42109 -1.70346 -3.36532)
(14.9968 1.00514 -6.16)
(8.21531 -4.29859 -2.8314)
(7.51385 -3.81028 -5.10785)
(10.3973 -0.461594 -3.40552)
(4.89004 3.41538 0.459828)
(6.32394 -3.59686 -2.10472)
(-1.02177 0.36441 1.54495)
(5.78073 1.76402 -0.900087)
(-1.38495 1.39393 -0.384654)
(2.22736 1.02906 -0.929728)
(2.77152 0.730601 -1.35454)
(0.375603 0.12951 1.25876)
(17.9448 2.27741 -2.19452)
(21.8144 -0.431447 7.41153)
(15.2358 0.979501 -0.485566)
(8.1454 -0.388332 -5.23097)
(14.423 -2.3047 -4.43189)
(8.75074 0.440988 -5.21377)
(4.38577 0.351805 -0.621384)
(8.55467 1.91837 0.0823029)
(7.44763 2.16298 -0.0807748)
(0.205623 2.88824 -0.358697)
(2.40209 3.88658 -0.992481)
(9.23272 1.9559 -0.163876)
(10.3555 2.85186 0.325563)
(13.0415 5.85673 0.404159)
(13.1348 -1.63353 0.155066)
(4.68986 -0.412868 -1.43003)
(12.3559 1.84155 10.5563)
(9.64729 0.987803 0.491561)
(11.5286 -2.26391 -0.76462)
(7.83096 1.73258 -0.330181)
(-2.28921 1.87777 0.84305)
(10.5195 -1.69635 -0.389986)
(17.7927 -5.53732 -4.59293)
(16.0754 -2.59301 -3.95113)
(12.1472 -0.397718 4.37294)
(7.58239 1.03618 -0.988652)
(17.9916 0.348876 3.78701)
(16.2873 -1.11499 -7.31077)
(14.1056 -3.11561 -6.18978)
(4.59363 0.631742 -0.277958)
(5.30516 5.66688 -2.74475)
(11.8085 3.32616 -0.170621)
(9.42859 -2.91664 -5.17977)
(9.9864 -1.59412 -3.20104)
(7.52498 1.66405 0.435496)
(5.22664 0.44491 1.01544)
(7.94818 -1.79284 -4.68905)
(11.1589 4.34478 3.55409)
(13.0329 0.673483 -2.54045)
(9.08922 -0.491682 1.3402)
(20.5354 -1.03018 -5.07892)
(12.2363 -2.83018 4.84258)
(11.7818 0.325756 -6.9399)
(7.86677 -4.61232 -2.48759)
(8.17281 -0.792234 -3.53226)
(8.60227 -1.97901 -3.83225)
(8.20752 -2.82077 -2.54578)
(11.2121 -0.992101 0.61219)
(8.81242 0.0348124 -0.047964)
(5.11903 1.84548 2.01412)
(8.97294 2.27291 -1.70332)
(3.91268 -0.862199 -1.49637)
(9.2103 0.140692 -0.351265)
(12.616 -1.22204 -4.68623)
(14.8803 1.28177 -3.62814)
(10.3338 5.43533 0.195158)
(16.584 3.71421 -2.62174)
(11.2426 -0.3232 -0.235966)
(7.03451 -1.00898 2.43229)
(17.724 4.56067 -1.85646)
(12.8441 2.83643 -5.75891)
(11.7081 -3.14734 -4.66826)
(16.1697 -1.90475 -6.45005)
(5.29044 1.4776 -0.541482)
(5.50798 0.54992 -2.08544)
(7.09854 -2.87202 0.0203627)
(8.69223 0.586773 -4.41366)
(16.9743 2.54302 5.22322)
(16.1604 2.88248 1.93876)
(14.9106 2.62649 2.72341)
(22.4868 -2.96307 1.12287)
(5.73728 3.09431 2.60941)
(16.7149 2.12609 0.394242)
(10.8176 -4.40129 -0.535092)
(2.04 -1.11522 0.504104)
(16.5889 1.48346 -7.38243)
(4.87204 0.538526 0.841353)
(5.75605 -2.34365 -0.64785)
(13.9341 -0.873891 6.58061)
(11.1377 -0.027539 5.93649)
(6.17766 0.0507855 -2.4531)
(15.9574 1.50507 -5.59575)
(7.40158 -3.61254 2.0281)
(9.54825 -3.16058 1.47702)
(7.21481 -2.6276 -2.8707)
(9.91332 -1.28263 -3.30773)
(7.74802 0.617551 -0.00839692)
(8.31354 -3.80244 5.19816)
(2.65902 -0.128899 -0.576988)
(4.51284 -1.14574 1.35206)
(0.109176 -0.979183 -0.184331)
(6.96501 -2.7451 0.256393)
(8.48773 -0.820911 3.10576)
(6.52595 6.82907 -1.52857)
(7.85547 1.53236 -4.4047)
(8.89494 0.742874 -0.0518976)
(10.2762 0.344761 -0.0297766)
(15.0559 2.22181 -6.17667)
(12.2326 4.92199 0.567219)
(9.25116 4.88212 1.5503)
(16.8734 2.26502 -2.86393)
(13.7398 0.720045 3.6171)
(13.0921 1.62561 3.70911)
(6.1575 -2.74062 -2.04361)
(4.04719 1.4848 -0.46248)
(5.93898 -4.80705 -0.835824)
(4.9102 -3.79961 -1.02968)
(19.468 2.13624 4.77976)
(6.73198 -0.565308 1.44789)
(22.1488 1.04349 4.67814)
(18.8495 2.84093 -3.09079)
(18.3322 3.17256 -2.25063)
(17.7713 2.62629 -2.61747)
(7.48684 -1.98396 -0.213391)
(23.8977 -3.02122 -0.428534)
(7.56839 0.00141173 0.363596)
(14.3357 2.53633 -7.00846)
(15.1458 1.6005 -6.23783)
(7.49289 -1.10539 -3.70652)
(7.76272 3.11087 2.03113)
(12.0794 5.30326 1.39875)
(6.44876 -1.32947 -4.00286)
(4.33585 -1.10445 -1.32278)
(10.8418 -2.41242 -3.81977)
(12.6356 -4.05579 -0.446494)
(18.0784 -7.27114 2.99925)
(15.9024 -5.99605 2.32565)
(4.69816 2.46724 -0.473685)
(3.01747 2.08589 0.537746)
(11.5975 3.51536 4.50618)
(12.4211 3.61938 -3.0474)
(8.75042 -0.321141 -0.803562)
(8.48583 0.618343 -1.49845)
(16.4866 4.03116 -4.06347)
(17.0426 4.01084 -3.71588)
(7.66416 -2.13157 -1.46334)
(15.388 2.31364 -2.30278)
(18.059 1.12926 3.42079)
(1.39944 2.17908 2.50617)
(7.95957 -0.122554 2.58514)
(7.94793 2.69881 -0.978509)
(9.03852 1.84575 4.71716)
(9.76256 -0.0533705 -0.272857)
(15.9096 1.30626 -2.09748)
(6.19515 -1.23651 0.367423)
(5.38233 -0.863134 0.694562)
(7.6533 -1.60849 2.34738)
(7.73933 -2.03986 0.14007)
(7.66821 -2.50082 0.238766)
(5.97121 -0.629561 1.72697)
(6.91409 1.48025 0.439563)
(17.9901 -2.30921 -4.3467)
(13.6618 -4.11255 0.985745)
(13.8934 -3.92797 2.73663)
(8.25759 1.56989 1.27986)
(10.6072 0.0430446 -0.284169)
(3.9351 4.12469 1.83003)
(19.0139 2.98639 -2.97956)
(4.08826 -0.621463 -0.65481)
(8.3645 -2.02699 2.37845)
(9.34733 -1.47656 1.75318)
(7.35562 0.172101 -3.04137)
(20.887 0.948439 2.26493)
(13.9054 -0.198683 -3.6307)
(6.84081 -2.63512 0.014076)
(18.3522 4.39911 6.58761)
(9.26028 0.124418 -0.118633)
(7.79175 2.40819 -3.36493)
(7.22978 0.966375 -2.16006)
(5.83837 0.413859 1.84737)
(10.841 0.146648 2.5926)
(10.3118 2.40268 -6.81237)
(16.283 1.68957 -1.55198)
(5.86329 -4.99981 2.2234)
(7.06647 -4.97229 2.30332)
(7.48414 -1.21747 0.0272724)
(8.92218 -0.28268 2.50975)
(11.6755 -1.37247 3.53697)
(6.58197 -2.14558 4.45933)
(10.3049 -0.572315 5.98328)
(10.7396 -1.77947 -1.17957)
(9.96532 -3.13603 -1.30411)
(7.4324 -1.22717 1.81774)
(8.93738 1.75375 1.57413)
(15.1264 1.52584 -5.55627)
(9.66654 6.22696 4.43252)
(6.11282 1.80856 -0.787335)
(18.6863 -0.358811 -3.44086)
(15.4427 -0.995945 -6.63257)
(4.30329 1.14787 -0.169079)
(16.5547 2.89578 3.45011)
(6.70585 -1.82408 -1.91659)
(10.1964 2.36349 -1.03597)
(1.59224 1.12084 0.37555)
(20.2673 1.59436 -3.21299)
(4.17444 -0.00280449 -0.0632575)
(13.6728 -0.235386 1.03162)
(7.65134 0.721119 -0.0198825)
(8.14167 -1.48466 0.0684548)
(16.0927 1.00235 -1.07239)
(5.3427 2.526 3.19653)
(14.4457 1.97206 -0.399692)
(2.85083 1.37881 0.256877)
(2.56824 -1.83162 1.3635)
(0.593684 1.22448 1.12037)
(8.61589 1.04321 0.0664389)
(9.01357 1.22124 4.06426)
(-0.991387 1.87179 -0.28177)
(20.3693 1.22334 -2.20551)
(12.1949 -2.81333 -4.90294)
(13.044 -2.13909 -4.13556)
(15.747 -3.69246 -5.61683)
(2.09645 3.34328 -0.702191)
(11.2665 3.87216 2.69998)
(9.97139 -1.2845 5.35679)
(9.21415 -0.595549 4.36782)
(8.38518 0.278279 1.02659)
(8.21345 -1.27764 0.0718834)
(3.65715 6.80182 2.62935)
(12.2016 -1.61473 -4.99167)
(7.79336 -1.1375 0.5814)
(7.50053 -3.05653 -2.84268)
(7.95818 -1.30623 0.0588601)
(13.2707 0.0245997 -0.0627226)
(15.999 2.79713 -2.59671)
(10.4174 3.88319 1.68729)
(3.48541 -3.63296 -1.40288)
(7.76429 3.48269 -2.7121)
(18.4401 1.23221 5.59442)
(20.1572 -1.90459 -6.57825)
(19.2828 -0.660882 -6.76713)
(7.71548 -0.739435 -3.49158)
(13.0379 2.03222 -4.32978)
(3.51025 -0.556337 2.8276)
(4.98247 -2.15406 3.41232)
(12.2702 -1.99419 -6.77915)
(12.4684 -2.02108 -0.141346)
(13.8741 -0.239469 -0.297944)
(14.6027 5.91234 -2.50245)
(8.21848 -0.870959 0.0894206)
(16.9519 5.02154 6.89392)
(15.2074 3.07989 4.64409)
(7.33345 -2.03945 -0.422774)
(12.514 1.25242 3.55599)
(10.7345 -0.612047 -6.45212)
(14.5276 0.423047 0.211725)
(4.99978 -1.77995 -1.69307)
(13.4643 2.53216 4.8236)
(14.404 -3.12183 1.731)
(16.424 0.38897 4.20694)
(4.86492 3.51854 0.973821)
(3.47844 1.57394 -0.380229)
(4.49152 1.17758 0.532908)
(5.52795 -3.11225 -4.34557)
(7.24247 -0.0925135 -2.55518)
(12.2046 0.572067 -4.09504)
(13.7337 -1.52008 -0.79868)
(11.7862 0.915223 -0.615069)
(6.85244 -3.7129 -2.32231)
(5.14798 0.572555 -3.03228)
(3.6253 3.64543 0.339311)
(3.93844 3.00129 0.151259)
(9.46323 1.91308 -0.171737)
(4.28085 0.734564 -0.642916)
(12.2373 -1.70314 5.96936)
(10.0261 -2.2616 5.3752)
(5.8545 1.83834 2.93689)
(5.25902 1.56328 0.91523)
(17.2334 3.31606 -0.129134)
(-2.1119 0.947244 0.353787)
(15.3924 0.236186 3.00525)
(11.9081 3.26129 2.28108)
(4.55872 1.38187 1.68786)
(22.6988 -0.0334404 -0.211952)
(12.1405 2.11849 3.00475)
(5.60008 -1.73497 1.89717)
(13.256 4.20374 3.57675)
(9.38341 3.17037 -1.98087)
(3.11359 2.1567 0.158334)
(4.42702 2.58009 0.340212)
(9.28031 -5.00585 3.19423)
(7.95805 -0.37999 -0.843602)
(6.49678 0.622814 -3.16503)
(8.07362 0.0753305 -0.0104872)
(6.93017 3.01487 -1.59785)
(8.21302 1.49762 0.537957)
(6.23363 -3.6596 -3.6733)
(14.8548 2.38146 -3.51894)
(14.0328 0.271969 4.70059)
(13.7165 0.188607 -6.36879)
(8.20393 0.0758738 -0.0129611)
(7.96643 0.182178 -0.00583183)
(7.56706 -1.16857 -4.00071)
(14.2478 1.8093 -6.80527)
(6.47212 -0.257183 -0.0818354)
(0.453533 2.26385 3.01748)
(2.97429 -0.335004 0.320383)
(8.37259 0.0604014 -0.0227776)
(8.53631 -2.788 -3.76796)
(5.86619 -1.29633 -1.35922)
(4.95993 -0.940296 -0.724265)
(14.1166 2.20366 3.53533)
(12.4717 2.73576 4.12387)
(-3.5191 -1.24123 2.20578)
(21.5948 -0.153202 6.51368)
(6.96971 -2.1803 2.84039)
(13.4256 -4.24064 6.49106)
(5.48782 1.65389 0.156662)