/*--------------------------------*- C++ -*----------------------------------*\
| =========                 |                                                 |
| \\      /  F ield         | OpenFOAM: The Open Source CFD Toolbox           |
|  \\    /   O peration     | Version:  2212                                  |
|   \\  /    A nd           | Website:  www.openfoam.com                      |
|    \\/     M anipulation  |                                                 |
\*---------------------------------------------------------------------------*/
FoamFile
{
    version     2.0;
    format      ascii;
    arch        "LSB;label=32;scalar=64";
    class       volScalarField;
    location    "10";
    object      epsilon;
}
// * * * * * * * * * * * * * * * * * * * * * * * * * * * * * * * * * * * * * //

dimensions      [0 2 -3 0 0 0 0];

internalField   nonuniform List<scalar> 
77525
(
419.43
5562.19
390.889
1978.36
553.723
4138.63
2990.45
775.595
8683.37
552.209
6869.24
293.356
868.766
2177.45
953.619
2278.79
1420.56
1755.74
886.057
2497.89
1033.36
2790.2
1895.37
686.427
1368.22
3539.29
2268.77
215.644
648.256
587.564
259.903
727.654
1374.34
2333.23
571.969
4349.84
93.7905
2600.55
3049.39
199.877
79.5316
2210.26
124.734
1670.98
1699.73
1351.26
1697.62
2929.68
3057.12
400.908
1031.06
948.718
1544.97
445.67
5400.89
1255.61
128.467
322.413
1370.67
650.388
4917.21
232.492
4170.46
386.149
423.629
397.491
1781.8
889.378
173.966
218.81
2584.77
464.296
732.29
1550.49
2883.89
1689.6
1647.49
462.909
1254.76
381.693
1195.64
344.745
365.35
1349.17
4752.83
2866.44
1560.1
2225.01
2137.88
285.878
2819.54
2239.38
2871.91
424.85
577.476
138.93
247.807
8597.2
1394.55
565.539
1856.26
1384.48
1060.74
1163.55
74.8427
397.516
376.828
1556.23
154.926
3460.83
2425.15
3377.74
1672.95
314.383
5874.23
207.465
2126.8
650.209
2057.39
3743.63
1134.05
5040.66
4279.8
761.46
804.971
3816.25
9468.97
235.273
1969.37
711.287
818.478
676.443
342.023
749.982
315.962
1245.29
163.391
1199.17
162.282
604.571
852.076
1961.25
3854.6
2396.79
970.316
627.753
1518.47
1510.2
303.518
2811.48
1482.8
134.925
742.89
528.213
264.674
1530.87
284.828
929.147
464.681
483.353
1504.62
949.988
779.385
741.094
805.883
2277.18
1719.54
1565.83
105.182
425.198
313.107
1749.39
660.888
5024.14
6651.22
1585.37
847.197
479.92
108.044
136.506
5344.66
1713.82
556.833
6027.08
694.448
456.283
1356.25
958.292
1165.59
2559.19
378.624
1576.43
1167.36
993.402
6085.88
5976.93
1997.84
1689.15
2506.79
357.867
2394.99
2989.22
1200.85
571.26
601.936
2155.38
171.836
189.146
821.552
1495.26
706.586
1173.25
1008.26
61.1833
1219.69
903.516
109.692
1673.62
2107.62
7174.56
4610.45
961.31
289.261
980.266
128.322
178.032
710.112
1979.86
1237.03
3586.71
2334.8
1616.12
87.1869
303.882
2000.04
342.375
319.14
621.976
1664.32
2044.05
273.777
8876.11
8782.71
641.593
912.098
526.931
564.974
3617.41
139.036
212.585
5092.06
724.052
318.428
2520.18
1867.79
372.72
238.75
752.559
610.287
129.955
79.129
543.933
7596.35
1212.35
2121.47
3795.85
565.683
228.188
686.05
2395.54
4979.58
2164.55
9644.66
1314.91
946.838
625.275
8517.12
6077.9
449.909
1750.98
1427.87
367.374
1287.18
376.095
2517.51
2720.42
412.784
620.438
544.609
1403.35
764.817
3835.64
191.826
5626
135.684
1121.25
2894.64
93.6753
1800.4
3077.02
950.455
498.73
463.221
238.015
164.824
692.263
68.2522
4987.43
774.894
1341.92
1790.22
1143.01
265.373
1749.78
966.781
1069.02
618.828
747.283
3973.9
1638.71
1205.05
1368.85
265.989
142.385
674.357
530.662
200.759
1559.21
955.106
827.891
2643.5
5156.34
654.299
70.7025
334.742
499.652
4706.09
1234.2
311.328
314.046
783.69
403.544
914.625
378.904
400.689
392.007
789.689
7814.86
2133.79
1345
1647.53
143.752
5279.52
1423.67
539.643
120.711
482.673
3406.01
513.263
173.162
488.131
516.047
289.308
1581.16
793.211
2564.96
750.504
1242.28
1438.36
2471.03
367.109
6976.61
2478.34
661.85
363.879
5299.27
4975.36
4851.62
860.126
976.171
3827.29
7543.05
5290.28
610.318
701.029
323.922
1119.29
1077.94
3839.51
4709.4
730.727
159.74
1009.38
1605.48
8017.12
5349.5
276.999
167.352
214.107
2232.1
3129.32
1053.74
7812.65
1090.06
89.9439
928.787
819.87
497.08
604.135
2696.48
675.211
10645.9
3089.31
1637.65
3637.53
2230.92
6643.87
454.76
268.474
629.795
4753.08
4278.38
5188.76
2801.72
563.151
470.639
709.317
1600.2
420.62
804.998
247.494
215.599
6515.48
1669.39
256.159
866.576
529.018
2056.66
286.776
341.499
6701.76
50.4858
242.015
50.3789
5644.06
6928.04
904.644
236.623
582.989
3623.65
76.134
1216.83
1617.52
1263.02
449.68
3114.32
1000.41
589.177
417.029
218.823
1937.03
6845.36
1728.06
139.349
3860.7
891.883
693.791
604.73
375.147
2869.37
2292.96
2231.72
141.905
510.033
752.246
5881.09
496.094
189.098
754.525
705.313
1818.79
1660.22
311.092
1700.86
1308.03
2831.7
654.636
725.18
1940.86
367.23
413.746
93.1108
908.31
1903.4
403.041
1515.9
149.354
7857.84
3491.51
5495.66
6287.94
282.102
299.677
319.409
6242.09
2082.34
241.648
623.564
866.812
827.822
2265.75
217.441
757.159
1198.98
317.118
737.22
611.599
268.962
2464.96
4102.15
140.284
181.541
205.578
1386.5
334.312
99.1392
2861.64
2002.9
7897.97
6282.74
1892.09
290.173
885.535
548.653
978.763
1638.81
1391.18
229.046
375.914
1522.39
988.849
3398.77
3783.18
1472.28
3887.17
1535.09
1005.02
457.645
2165.71
2642.6
260.873
730.694
2001.05
1824.5
600.781
614.334
1179.1
198.765
3232.84
7556.7
49.5061
520.475
221.418
75.197
807.437
1727.07
696.905
2764.54
4112.14
3678.19
2094.04
1906.03
202.18
145.296
7531.16
7205.91
1307.54
1518.4
379.133
501.505
476.281
1137.35
8119.16
3430.45
5104.21
511.876
2602.88
106.151
321.792
68.1178
2124.86
125.485
243.45
4355.01
958.736
2631.98
521.677
306.665
1556.77
2241.53
946.064
147.715
680.707
5715.83
344.627
446.176
3253.93
847.974
1140.89
1744.33
7122.67
269.668
3749.54
2862.03
1856.99
6478.21
79.5414
80.6147
84.4614
566.914
3543.05
1676.78
900.215
3759.47
4596.1
408.999
1060.66
3846.44
2111.35
936.418
726.698
704.282
1063.54
816.011
3145.03
781.012
2950.67
713.655
450.769
58.1009
709.461
633.269
687.226
321.002
233.251
342.527
2694.2
801.675
765.523
5756.3
4796.14
1171.88
884.821
70.4881
466.271
1486.36
318.592
65.9431
678.704
513.81
414.228
3021.81
4355.24
7543.99
7185.28
1520.17
1238.46
2137.62
2922.43
3264.52
880.643
1224.35
866.181
740.526
1177.19
601.425
790.446
935.227
468.487
1254.14
278.243
910.892
70.3916
3577.39
2308.33
427.284
1250.41
3821.21
2242.13
197.103
472.222
827.984
127.123
4508.12
281.908
5245.3
997.887
2317.69
112.862
350.038
342.92
1045.12
1093.17
292.259
170.128
1252.54
293.263
299.345
821.586
530.028
2493.39
1779.31
951.327
243.183
593.087
1592.66
1843.06
2794.42
2951.07
1806.17
73.5852
7655.02
404.742
1832.44
6594.78
1331.54
308.447
382.575
436.628
744.958
247.237
64.895
84.0607
768.209
186.02
1459.55
1873.72
4329.08
4767.52
227.752
3213.64
4998.19
641.863
2203.67
111.899
848.123
1875.22
418.81
3612.22
1207.59
558.372
78.7871
3214.12
97.6479
100.242
1795.31
222.75
6570.45
5135.11
95.7839
93.9327
179.598
215.343
2594.75
2503.08
140.704
2716.14
3882.51
3722.66
51.863
650.508
395.928
298.741
301.738
5203.1
122.105
69.3399
432.931
289.759
1197.46
894.381
2690.28
2358.08
1090.12
1218.03
423.746
323.68
335.145
166.222
534.942
151.311
132.294
467.008
380.995
5392.26
599.867
1946.5
1604.98
780.908
206.049
5136.71
2595.64
1368.37
670.878
3756
3923.9
4581.94
294.564
118.371
102.637
384.622
431.983
267.45
354.291
1352.08
1161.41
4228.65
581.087
399.057
230.237
2097.15
519.581
2974.3
4745.94
1230.53
114.328
6207.4
565.058
394.902
2859.28
2362.03
168.875
488.586
2718.76
4450.36
844.488
386.533
5386.18
1038
65.8765
1046.93
4945.6
3907.09
490.726
802.129
3316.68
1705.03
343.129
1785.96
166.234
228.882
209.681
2669.47
431.31
4346.97
337.472
1921.74
1653.45
95.9367
103.5
499.957
375.958
1580
8694.01
8038.06
1262.76
741.742
689.562
1242.15
1026.51
173.061
6448.16
6562.7
548.152
406.115
92.6325
491.822
153.978
164.934
268.534
4851.02
2789.89
517.455
1869.85
502.992
285.744
4205.81
5079.82
4630.84
5190.08
384.598
156.096
1770.71
259.907
119.668
1224.03
2960.2
2965.81
112.734
228.79
780.703
7845.05
337.808
4173.49
3617.2
4905.03
655.613
292.067
90.7583
3337.33
4074.1
424.066
495.217
531.696
521.251
349.619
1842.01
9072.77
2158.11
1895.91
674.932
293.411
1742.98
9558.39
8268.77
5598.37
4234.21
857.702
2175.33
5477.65
446.86
3169.11
226.515
203.358
5338.35
758.089
931.201
594.131
2158.39
2761.71
366.016
4014.48
779.464
2861.58
1631.8
3697.49
1749.34
738.97
122.427
8022.52
464.968
797.01
280.444
4312.89
1963.68
8200.74
1482.6
1106.32
1370.65
4903.69
2039.31
2677.14
245.958
422.465
323.331
335.395
8163.22
554.196
198.8
251.012
3787.08
8701.41
2219.79
4715.67
4665.61
2447.03
360.391
1722.67
240.827
1047.88
383.06
445.835
90.1864
523.946
251.389
322.018
619.519
1971.15
1019.87
2185.17
175.789
230.238
343.272
479.967
451.144
4293.05
228.045
3940.68
760.05
336.637
748.155
520.06
324.678
1045.56
888.583
396.597
434.201
1528.56
7989.28
1837.49
765.564
7925.11
814.945
744.057
188.41
241.234
1277.58
4466.05
5822.67
1902.18
3150.68
7516.62
1983.09
148.681
726.182
582.132
1759.46
2441.93
4407.49
357.119
133.991
343.294
1020.82
386.896
1013.53
339.407
3571.6
742.446
995.597
332.392
7156.15
2279.64
3570.1
433.896
513.512
569.098
592.124
504.04
452.623
290.048
301.422
3154.68
250.296
1028.1
504.172
418.214
270.747
975.43
344.197
7215.37
7509.84
269.877
6993.63
1341.5
233.649
1342.76
311.154
5643.78
3963.75
2005.45
610.42
186.7
89.6846
900.586
1001.69
1820.46
1172.25
107.213
3927.64
896.324
717.335
410.598
5773.46
2697.66
672.512
433.082
4863.96
1296.84
490.617
293.075
6901.06
573.112
4563.73
443.834
3054.23
91.9787
248.929
234.075
452.949
335.512
1872.02
333.233
346.291
602.234
2389.33
489.226
1359.08
2776.94
106.719
2156.57
591.768
2377.28
281.087
984.487
72.9596
547.456
1937.41
1369.26
2333.81
308.145
928.808
2453.14
367.542
5024.2
4833.87
331.899
502.339
4212.88
1700.68
650.713
2076.74
305.069
1285.37
1757.09
1853.09
4905.63
3617.27
3257.27
3377.97
480.156
256.942
1577.84
482.925
1336.33
4850.76
84.9138
1138.5
488.019
2471.55
3191.73
272.661
4314.12
439.265
5420.09
4624.87
312.07
1093.43
1077.63
369.96
1595.18
413.943
178.66
567.842
1412.28
2164.91
2159.9
356.815
1334.1
363.745
101.965
1898.72
387.955
1484.54
1688.53
730.509
91.3966
166.49
86.4341
137.286
5263.1
3298.01
739.663
2923.64
896.268
1149.45
339.137
625.791
890.348
5166.65
316.145
474.529
158.626
3523.22
1076.07
4937.88
1485.67
4980.63
377.164
1406.55
5908.91
1345.82
203.363
128.165
208.479
829.567
199.307
180.471
148.392
214.437
2645.8
2974.2
1105.16
1646.81
224.55
6387.62
2741.27
431.718
424.938
4873.57
3396.43
572.51
848.293
234.752
5973.16
4942.77
500.258
443.884
8759.85
768.919
275.141
1443.53
1112.44
4749.56
3715.42
4500.12
824.563
624.74
581.591
245.904
592.858
168.946
1964.61
518.251
3284.31
6127.34
1697.67
2287.74
73.0985
3980.77
2653.9
491.656
5209.85
758.818
4976.23
1549.9
5052.89
307.147
2949.08
1499.05
3341.75
1216.53
152.127
3311.31
162.795
477.474
154.751
3680.94
3767.18
510.082
390.521
1497.8
2163.74
636.51
255.969
510.563
1187.38
380.265
4673.78
452.783
1877
669.417
693.603
1427.93
9373.52
303.047
3240.31
6381.35
969.163
1070.25
76.5709
628.999
373.747
537.689
2503.98
3315.07
564.431
269.47
197.508
261.867
365.684
430.633
2737.02
3593.83
173.502
7516.86
4502.44
5175.77
902.844
8280.78
1565.24
1522.69
489.969
1625.62
1260.68
1282.45
1832.87
478.122
683.434
647.765
305.034
392.05
99.7119
2048.5
112.624
719.727
2263.29
1552.46
1647.35
720.163
1019.32
536.849
1368.42
384.032
454.374
506.542
1025.78
1368.76
2069.4
3324.35
932.447
9208.84
302.149
148.369
448.032
1035.51
1458.79
807.505
1331.13
2109.37
1250.22
3519.18
971.646
1061.8
6011.46
300.993
298.992
1893.41
431.934
704.37
3009.25
360.805
1430.57
2051.56
5388.4
358.116
101.345
947.37
1496.05
149.229
5062.79
619.756
1104.15
1618.77
1829.79
860.813
713.006
712.718
1561.5
884.396
584.374
422.717
1213.88
1703.68
201.769
244.091
1244.95
1799.26
2688
1612.64
1848.12
8068.87
26.2701
9307.74
1243.32
1339.9
2048.05
1973.41
594.051
107.36
92.4742
365.521
380.741
914.338
2473.79
5993.15
804.274
1300.03
539.893
543.176
1818.32
1686.93
408.61
8358.85
6139.42
1343.99
1282.31
5105.82
7990.07
257.421
1036.75
1158.93
2215.7
1287.75
3115.46
129.925
4467.67
5797.01
4080.9
3854.25
1078.08
1387.27
1385.55
1861.93
502.103
781.803
1957.95
273.14
364.364
5434.65
9188.8
244.203
3273.76
5931.79
402.898
277.066
836.516
297.496
1311.64
1087.57
373.952
502.826
612.709
2232.26
4420.14
722.091
2551.49
923.38
756.702
4962.65
8725.15
386.014
324.485
3553.06
3176.23
790.872
2676.44
657.33
630.486
1907.39
809.849
1777.97
169.688
550.152
175.471
237.563
849.992
659.689
575.485
696.481
365.277
2988.49
1976.87
3323.78
1889.67
214.554
288.757
1398.24
1968.32
2004.01
2857.19
11619.7
1754.2
847.623
352.481
600.777
1164.24
134.735
384.363
322.67
332.04
1708.06
3459.21
587.905
214.327
2788.58
1136.57
54.1619
1522.35
763.165
1178.29
3545.96
1989.51
159.297
209.274
513.924
843.966
1749.05
2247.73
8607.57
484.536
1273.52
1258.39
817.984
11369.1
810.62
561.833
431.01
2502.53
194.988
492.883
496.504
622.918
756.107
1558.74
634.152
7834.51
2172.59
2440.4
489.303
3051.25
132.694
1133.91
856.065
619.162
197.829
3613.31
5502.13
1323.06
5021.66
4200.65
1899.55
512.886
70.4023
2191.31
234.123
1408.64
107.446
140.655
463.44
701.678
74.6289
7083.39
606.717
8361.91
8578.09
3629.53
3467.24
7457.4
1379.75
289.163
539.626
479.448
1901.64
647.07
6888.33
97.725
1202.17
1214.03
874.404
529.254
84.0594
435.942
376.107
603.332
451.768
7090.75
614.39
405.332
838.55
1552.25
1294.48
692.159
474.763
3498.79
1541.72
1929.23
1908.26
496.06
1014.45
528.952
2589.97
2169.43
3015.02
1313.2
6812.36
423.993
444.864
1438.68
4262.37
2298.82
158.914
683.965
705.124
139.484
78.8006
741.38
519.093
1036.88
8918.52
788.112
815.389
1541.37
1621.94
168.571
473.194
441.873
1650.26
2663.87
488.145
6082.27
386.983
1153.36
642.574
591.779
1182.12
891.016
1045.04
632.479
4515.68
404.681
14130
370.104
320.052
337.117
1887.2
724.576
683.937
2446.17
4010.16
3561.46
1708.23
745.875
441.867
443.188
3127.09
293.016
1325.68
789.191
521.506
3849.51
1389.56
952.201
7897.45
972.615
2249.01
2197.15
4077.48
1811.98
1681.88
347.903
3223.92
267.527
339.727
1032.34
3824.66
442.599
581.612
5443.51
2946.04
2879.91
1987.49
653.678
222.745
5438.44
2295.25
2524.95
5062.25
2792.01
2947.92
1940.68
1646.03
3960.84
4047.92
2276.19
468.425
5083.18
1962.75
2180.6
4360.32
327.624
2204.05
3929.15
528.315
2524.06
617.95
5797.86
6522.84
5271.28
1892.28
6275.59
1136.48
644.146
957.277
1365.65
493.599
797.829
4854.08
4515.54
4245.36
3538.75
2523.2
1241.55
440.226
267.857
5263.72
1427.71
469.569
4894.46
120.267
286.906
1441.22
3343.75
787.488
1051.2
1443.99
431.386
1076.46
3667.93
5479.53
681.951
120.921
675.426
4958.74
867.362
1300.15
842.826
1762.19
118.171
243.913
446.276
1679.24
1569.74
256.684
292.132
530.961
2058.94
1906.41
424.973
825.837
1722.49
4626.21
493.521
841.891
1072.83
1222.45
5320.44
4110.73
1801.46
3321.99
916.463
4186.71
836.804
2577.32
1900.55
4570.62
1451.01
306.292
1979.53
2735.18
2612.72
747.301
691.897
1324.08
929.292
4309.82
1128.55
2475.07
3171.65
620.322
9303.35
1862.34
1509.53
3487.43
122.799
166.358
6803.88
2514.88
3405.34
2122.29
1696.86
1047.97
958.573
400.988
417.391
340.764
6290.83
618.082
7722.7
5217.38
419.386
558.568
1343.16
138.025
183.436
5120.63
5030.07
4055.67
2030.09
4758.55
2209.99
3262.01
2517.94
782.476
4615.34
7452.32
621.585
1115.59
9454.71
670.547
588.651
601.656
507.252
7222.37
1598.32
542.768
169.602
185.57
2043.88
2265.5
521.505
1686.06
1425.97
1152.17
529.54
89.7117
655.125
530.198
573.818
398.35
519.89
437.089
449.324
539.979
1228.92
338.287
718.557
1008.7
1145.68
396.238
265.248
4857.8
242.072
325.258
1952.49
1891.52
1344.29
1362.89
207.174
1669.89
3558.79
818.625
3973.02
74.2592
1348.88
818.609
884.975
3881.96
278.238
2627.39
2656.37
7993.88
3924.49
2890.1
1027.55
2560.56
2438.01
1098.57
4517.53
4859.81
1578.63
1022.47
1757.15
1442.55
299.966
732.623
1840.16
1063.78
5102.49
780.978
4284.3
4856.91
2826.27
668.812
392.259
1546.9
2033.98
1657.3
1148.53
507.7
3085.92
3461.21
6602.49
480.194
5496.46
4475.79
256.129
1687.46
9253.48
2721.91
1203.2
205.333
849.868
5324.81
6074.51
1250.6
348.196
1284.06
3249.32
749.061
6283.45
233.069
1886.39
1880.31
929.827
781.136
4508.46
485.545
899.612
606.886
2930.79
4241.66
2456.24
168.347
1099.03
410.842
5190.57
1655.66
1899.5
1669.31
677.241
280.92
1710.62
392.079
592.054
11467.8
2301.93
1614.67
296.723
4063.15
3214.34
4337.37
5043.92
554.498
4110.13
1972.77
4189.8
2156.87
2640
275.255
429.426
4393.12
69.0732
2089.6
1405.11
639.093
3226.91
411.831
107.457
146.731
442.713
361.519
2983.46
3715.41
3057.97
3953.26
3493.81
658.532
3574.16
2936.89
2232.14
100.621
2074.28
2742.9
2728.93
226.439
959.074
4278.93
802.836
2092.77
1192.98
107.004
104.407
2683.88
2450.5
300.096
690.603
4795.32
138.846
181.505
5002.07
9978.05
9268.31
2083.4
3352.22
1862.17
2471.93
3661.7
1212.56
1206.45
1513.12
2303.11
1353.02
1204.46
424.93
432.461
494.077
3125.9
1006.66
208.13
3623.83
1394.53
1487.34
885.643
1015.74
1508.91
2376.93
893.86
856.284
1013.11
848.637
1235.88
1143.74
1187.3
2401.3
3674.52
508.147
712.811
538.837
280.269
2854.97
215.428
1454.12
1389.89
660.6
377.737
1714.11
3734.89
2285.45
1267.3
553.137
2565.94
3809.74
3401.53
647.843
1606.93
2141.57
2037.38
1081.03
2436.8
1251.82
1660.86
2241.19
1375.73
2171.49
5599.74
1126.55
661.559
419.775
2102.54
2119.53
1106.19
668.384
1686.25
8948.13
646.295
516.65
370.53
896.207
1582.49
464.26
824.685
2968.97
799.313
174.038
2153.05
649.084
387.414
402.229
167.993
4640.09
667.407
585.568
3288.13
191.451
521.014
636.395
1296.79
1206.9
862.481
135.007
413.189
343.041
2553.49
272.429
2852.3
3798.96
1502.49
3222.05
827.77
1102.53
1855.73
3137.97
286.911
1506.98
1700.85
1543.16
4212.39
1833.5
10382
477.614
1543.74
533.312
1761.87
3439.47
476
1391.8
123.993
1460.54
2700.92
4641.55
4542.36
5225.64
153.447
1142.81
3793.4
1853.86
402.006
394.651
2145.84
922.234
1926.02
4183.42
2531.48
115.847
187.703
2313.07
4732.12
376.706
3430.08
2536.25
1219.82
4470.79
5741.06
1235.34
1286.29
2691.1
121.428
1054.71
3644.73
223.107
2276.98
5754.33
3038.66
13148
9778.74
992.034
1238.25
2829.7
1813.37
3366.2
309.013
18981.5
1324.9
4952.77
2099.37
2718.11
1568.74
7104.41
635.332
1246.42
3535.89
5938.67
418.211
1463.12
864.814
731.22
543.706
1746.82
334.303
1436.5
128.206
431.923
1331.03
936.517
1717.22
640.343
526.661
581.249
263.502
1029.58
626.096
21712
383.804
1050.16
1104.86
249.613
2550.13
192.394
901.848
314.418
1410.94
1098.15
326.068
3562.49
493.376
2518.91
433.147
474.74
1301.76
447.817
1021.52
661.049
639.249
596.415
1057.65
603.175
1181.83
957.848
520.937
602.609
1410.03
1173.67
142.399
405.74
369.509
156.529
269.674
763.035
1028.96
173.655
1568.11
56.4404
1287.56
1385.27
128.058
41.9755
870.813
105.913
733.748
764.205
622.956
531.148
1437.24
1339.13
167.991
449.484
447.404
754.41
257.475
1853.4
534.797
82.7042
178.003
446.994
326.499
1379.47
75.5814
1613.23
237.169
172.973
198.746
762.229
507.913
173.126
199.385
1059.62
169.644
356.725
552.524
1415.25
622.587
702.496
336.133
607.19
138.858
536.415
205.216
281.348
802.772
2211.62
996.89
648.611
782.414
1120.92
235.331
1050.6
1093.93
1189
173.963
210.986
53.2261
220.304
3409.11
534.808
212.215
833.022
799.05
693.034
755.719
40.6114
256.871
275.169
560.688
129.417
1201.54
970.317
1291.23
807.447
155.471
2407.89
142.397
1014.54
244.76
913.276
1549.7
855.435
2456.32
1929.13
477.252
588.897
2384.97
4808.13
152.137
884.385
418.13
551.743
374.717
255.33
343.127
163.504
739.499
201.935
634.222
102.752
191.19
335.595
775.759
2728.38
1628.65
376.322
366.75
713.261
489.183
218.862
1251.58
978.465
129.147
303.553
316.809
263.91
594.565
134.076
518.267
168.827
242.907
1265.22
478.43
375.833
273.516
544.757
1239.73
891.694
1111.8
59.1209
235.564
221.964
895.995
303.117
2464.75
2763.24
726.37
588.956
362.608
77.5072
101.808
2771.25
996.394
171.791
2489.79
375.857
263.725
485.723
428.884
786.171
881.344
236.164
662.52
446.433
484.459
2656.08
3308.98
1245.16
1012.27
1151.63
227.677
1264.22
1259.16
579.042
405.076
364.086
1211.46
132.149
103.738
325.817
743.745
289.34
750.472
548.726
31.8129
589.015
401.339
165.411
781.337
752.316
4329.4
3008.41
389.976
205.266
318.171
75.1631
146.73
347.482
712.024
614.081
2231.81
1202.15
1190.63
43.3696
215.613
983.564
339.468
245.712
360.986
714.238
1414.99
169.743
3754.98
3286.52
432.412
317.369
335.083
150.43
1509.69
61.7285
127.379
2165.73
448.705
165.335
879.029
979.852
207.892
124.146
420.818
307.246
89.5171
45.1579
204.617
4183.89
520.446
702.942
2803.7
376.327
173.535
425.539
1086.96
1188.5
735.408
3594.54
758.171
303.717
228.507
4247.33
3134.61
252.031
1260.68
769.259
217.03
610.064
243.831
1386.93
1507.32
125.822
312.876
443.103
544.932
258.442
1362.71
103.303
2628.38
67.4295
810.383
2077.11
90.9445
833.254
1947.84
641.167
280.431
212.144
148.411
122.838
441.882
53.746
1833.59
386.219
572.649
791.666
425.618
98.2677
620.978
641.538
581.046
339.548
308.359
1658.16
864.359
614.18
628.514
178.207
190.896
354.664
253.565
126.142
698.395
431.399
455.459
1230.44
2254.43
304.365
43.6116
159.676
302.925
2531.37
478.84
198.748
218.573
418.565
366.393
594.731
130.828
258.038
230.388
435.817
4418.2
1373.62
739.923
629.957
144.43
2421.12
414.366
190.449
85.2306
279.444
1808.07
175.424
93.487
201.465
188.746
193.829
903.551
626.578
1189.26
328.149
519.667
409.118
1192.21
177.987
4490.29
1297.16
230.44
119.07
1948.9
2005.23
2744.31
337.755
637.827
1808.08
2676.36
3107.63
171.175
314.656
204.357
638.716
702.404
2136.99
2104.07
405.189
109.127
489.345
644.588
2233.98
1748.86
77.6124
146.808
215.98
997.052
1156.44
577.99
3681.38
352.059
44.7489
438.784
409.718
273.715
349.333
1032.16
351.882
5459.84
1401.13
847.195
1526.19
1548.28
2676.7
308.615
208.657
289.343
1857.18
2082.59
2377.12
1386.91
359.314
456.72
507.749
708.421
388.874
408.235
188.16
163.697
2620.89
917.779
172.581
381.539
444.921
1007.33
243.388
221.215
3714.55
24.4335
95.765
47.6517
2499.17
2882.61
352.417
88.7332
260.901
1488.33
53.4886
718.677
604.728
699.072
228.394
1687.7
434.304
264.504
211.621
118.888
682.4
2825.3
810.078
69.3134
1224.84
307.286
287.528
311.671
181.53
1375.69
1288.63
570.202
155.598
336.51
441.828
2764.11
186.727
151.755
416.149
396.906
616.596
654.981
172.867
719.655
482.184
1511.5
283.562
336.4
623.533
158.414
189.343
50.4113
691.669
1299.55
211.958
636.255
56.9571
3300.8
1329.31
2715.06
3143.5
240.747
222.023
233.567
2327.42
1514.71
108.066
385.168
535.624
417.442
1018.24
48.8678
552.833
777.86
186.594
432.549
197.526
168.787
808.318
1814.54
96.8953
115.405
76.4955
938.454
82.542
49.1664
1131.5
590.138
2662.42
2352.98
964.087
139.688
473.519
381.489
599.139
892.426
881.765
121.285
248.473
1331.89
378.025
1044.2
2165.5
398.413
1689.92
966.274
939.209
209.448
930.248
1501.09
209.378
323.529
989.515
675.169
278.697
326.402
741.245
134.395
2114.39
2846.65
49.487
188.342
156.188
46.1755
271.377
1033.26
379.206
1120.82
1713.9
1787.65
849.497
1161.05
80.829
91.343
3382.97
3323.28
884.295
878.41
166.407
157.316
451.383
416.289
3786.57
2057.85
3073.2
203.016
727.24
36.6875
188.496
39.1258
718.13
66.2461
89.8922
2393.47
510.241
1053.05
261.91
165.469
864.504
840.951
432.518
87.5015
406.171
1970.02
213.684
250.449
1301.46
463.242
509.189
829.278
2811.99
126.078
1082.6
1112.47
935.557
4114.45
44.1785
57.9513
54.9144
249.315
1549.28
1035.37
504.649
1834.11
2214.61
384.83
674.137
1385.76
1010.08
350.645
494.681
508.466
496.546
613.174
1140.63
455.855
1650.3
320.7
162.526
96.5672
297.094
361.074
238.471
187.549
123.007
235.807
1133.83
269.382
279.786
3296.96
1946.1
679.2
539.12
55.5805
282.567
572.806
156.92
45.4304
196.336
315.981
240.887
1023.68
1417.89
3970.58
3566.75
557.779
575.147
687.721
1771.96
1054.64
486.186
514.053
574.213
389.075
540.076
310.345
411.279
538.016
210.491
577.242
222.784
417.639
39.6722
1207.42
1242.68
262.118
496.638
1896.37
1217.87
117.779
243.4
412.035
96.9518
1701.19
267.24
3044.83
789.345
1031.84
69.5472
297.442
303.93
409.043
681.057
257.098
151.304
722.02
132.698
220.373
399.665
242.529
879.856
1206.01
571.74
99.149
282.548
889.003
1007.91
1300.28
1464.32
1008.91
41.7661
4393.69
321.254
878.694
3589.52
369.372
178.758
297.695
194.69
407.395
136.957
53.5347
65.8979
339.199
105.394
616.19
1070.32
2057.13
2332.29
186.02
1370.56
2630.93
253.821
790.214
55.2256
304.366
666.031
170.991
1199.27
628.528
314.986
76.109
1992.11
54.8192
65.4678
1173.27
144.498
2206.4
2032.76
66.3699
68.0675
79.2944
136.505
998.062
1446.65
71.823
1366.75
1775.39
1595.68
36.4442
257.513
222.782
131.813
110.956
2271.11
62.2291
40.5618
195.166
139.094
834.783
564.951
1404.64
890.428
594.027
612.276
219.801
218.232
202.706
139.278
173.181
128.414
51.0228
346.226
172.759
3116.31
293.989
900.634
918.38
397.378
173.7
2199.11
754.866
480.273
289.753
1413.81
1528.02
2210
137.113
87.0892
92.8919
249.657
205.372
118.839
117.063
694.763
497.328
2764.12
343.833
314.963
200.69
844.743
449.211
1540.58
2862.3
934.006
148.364
3278.31
300.52
212.202
1099.04
831.745
104.927
145.801
1805.33
1723.67
401.185
263.871
2247.08
417.278
39.3935
414.6
1788.83
1727.45
360.214
660.341
1613.23
875.159
104.671
1157.59
121.083
85.9113
128.711
1358.61
212.018
1897.6
174.35
791.623
672.951
80.7557
70.0541
151.205
200.338
742.494
3885.86
3620.17
448.426
298.517
261.129
562.08
465.433
140.435
2700.89
2853.36
460.577
187.219
87.8806
251.776
109.38
111.58
95.1018
2099.02
1334.97
344.152
993.59
215.073
173.09
2271.85
2047.01
2274.81
2402.34
229.736
101.91
1191.6
165.409
163.025
625.314
1435.95
1474.57
79.4421
126.563
404.186
2909.55
132.147
2106.49
1631.55
1845.64
292.308
138.893
35.0067
2149.41
2334.03
253.647
237.022
257.249
204.216
171.929
942.783
3823.6
681.942
665.043
381.646
211.993
842.685
4489.13
4242.45
2331.2
1943.8
342.607
678.322
2930.49
124.346
1113.97
127.511
98.236
2361.8
450.593
349.044
217.465
910.821
988.538
237.223
1437.14
276.054
1045.65
688.677
1691.58
880.776
390.968
46.9966
2645.44
137.029
331.516
173.981
2415.6
914.553
4235.24
556.745
540.344
674.887
1441.24
1248.96
1891.28
124.404
205.952
279.871
186.906
3567.86
270.814
179.419
160.407
1899.39
3736.19
898.967
2028.23
1632.11
835.549
140.764
772.265
134.928
413.597
226.43
187.636
36.256
297.766
125.913
277.843
612.704
1128.55
488.772
1008.9
203.807
213.603
139.048
277.325
333.08
1779.39
93.9974
1915.4
433.818
251.408
248.463
293.472
194.953
580.916
422.639
190.211
230.448
757.931
4559.5
484.8
279.505
2448.12
267.032
269.109
136.6
119.991
459.399
2854
3100.27
809.295
1034.16
3364.21
1618.94
137.701
423.244
360.643
784.24
852.281
1588
173.092
96.353
132.581
576.368
165.028
566.143
155.161
1478.94
329.661
435.044
108.709
3346.89
1651.13
1685.26
159.161
187.105
386.704
419.104
210.435
184.627
82.7602
105.784
1373.18
140.753
402.843
256.731
205.133
196.176
709.573
219.743
3382.66
3624.2
73.1089
3585.98
508.145
133.586
575.381
113.424
1833.7
1701.8
908.079
325.267
116.867
71.0971
367.103
330.905
1231.35
623.239
107.485
1743.12
528.527
420.897
273.492
2414.42
1280.54
337.589
314.392
2070.39
781.095
188.106
151.135
3301.01
303.283
2112.99
176.748
1329.16
40.9
143.491
146.139
236.187
114.554
1251.56
239.1
176.726
171.915
1270.47
271.622
736.312
1272.79
79.6251
871.839
324.514
1102.76
186.178
526.737
38.6076
373.69
965.538
1090.32
1330.82
132.481
384.061
790.626
177.271
1990.39
1950.67
212.043
364.282
1245.06
968.688
434.575
786.986
120.641
868.699
1135.72
696.432
1682.2
1026.4
876.185
1625.04
203.163
96.6109
875.677
138.386
666.338
2523.94
34.3907
440.566
180.416
1348.36
1590.3
152.618
1667.48
136.047
2183.32
2268.22
168.128
621.603
394.528
222.455
563.584
205.915
116.451
412.11
580.848
816.437
1396.09
243.835
699.37
155.457
56.092
862.729
185.945
760.951
766.567
467.416
127.183
168.437
50.4545
108.175
2415.86
1847.26
273.479
1037.53
530.917
536.073
196.238
399.349
523.943
1844.88
201.075
281.773
97.9701
1570.33
392.906
2349.65
523.607
2086.81
280.241
548.045
2411.31
466.325
141.59
97.8952
125.601
470.733
161.472
125.759
59.4261
126.382
1312.61
1322.81
764.589
1213.6
103.437
1862.06
881.54
186.149
198.188
1677.16
1453.12
480.746
593.745
96.8509
3147.51
2868.06
272.42
249.417
5163.34
269.224
111.302
972.706
468.618
2091.62
1076.71
1881.37
368.033
341.974
330.205
113.176
214.363
111.673
1285.83
202.019
2226.53
2844.72
525.251
905.53
58.5826
1741.99
943.998
170.582
2400.17
410.435
2065.75
827.011
1540.78
167.988
1362.78
984.552
2011.33
512.735
157.625
1372.81
84.4533
228.592
107.651
2121.68
1995.56
247.966
244.027
676.35
509.54
302.174
121.263
224.678
842.974
188.956
1482.15
167.907
657.743
421.415
395.77
735.855
4702.26
204.908
1529.32
2336.73
537.525
523.892
39.0067
254.028
197.351
339.759
1537.02
1376.35
112.508
138.597
122.685
102.884
215.823
168.002
973.431
1188.83
106.549
4685.03
2206.89
2497.67
397.564
4108.65
1075.9
1009.98
354.292
658.322
738.041
620.323
718.06
225.994
397.911
375.237
219.931
163.839
40.2289
584.711
122.949
688.917
827.036
626.991
589.381
252.502
572.868
316.504
779.371
276.25
299.681
262.844
422.813
911.662
868.701
2288.04
419.62
3808.96
181.058
124.674
281.305
354.988
734.353
369.421
715.753
1364.43
414.021
2090.18
550.382
422.359
2282.84
163.667
129.065
889.881
214.889
538.421
1512.58
246.157
600.478
873.233
2382.31
269.342
67.1813
676.656
931.649
87.3149
3247.13
271.25
673.71
790.519
708.008
465.561
427.193
363.443
787.445
448.751
336.819
246.285
513.694
792.932
84.6509
92.8599
389.159
709.616
1259.92
704.568
698.102
3611.96
75.6883
5005.91
513.314
853.301
1316.81
934.932
254.519
58.4075
50.828
257.618
160.006
395.31
788.535
2340.96
343.557
615.696
219.436
199.942
599.318
808.124
231.125
3911.73
3488.62
944.503
642.43
2516.23
3330.04
171.92
598.705
350.809
726.346
728.776
1048.67
76.3785
1857.89
2978.69
1666.86
1645.07
890.142
653.273
769.176
559.782
431.443
400.851
898.616
188.24
184.23
2473.56
3491.69
83.2279
1234.62
2786.68
120.592
119.958
344.084
188.959
582.721
602.538
191.202
282.501
352.966
971.29
1781.4
333.528
1416.86
353.374
382.976
1780.92
4181.99
253.324
161.865
2009.63
1773.04
420.417
833.993
218.64
186.637
808.83
402.991
965
91.8969
157.261
61.1355
173.241
318.256