/*--------------------------------*- C++ -*----------------------------------*\
| =========                 |                                                 |
| \\      /  F ield         | OpenFOAM: The Open Source CFD Toolbox           |
|  \\    /   O peration     | Version:  2212                                  |
|   \\  /    A nd           | Website:  www.openfoam.com                      |
|    \\/     M anipulation  |                                                 |
\*---------------------------------------------------------------------------*/
FoamFile
{
    version     2.0;
    format      ascii;
    arch        "LSB;label=32;scalar=64";
    class       volScalarField;
    location    "10";
    object      k;
}
// * * * * * * * * * * * * * * * * * * * * * * * * * * * * * * * * * * * * * //

dimensions      [0 2 -2 0 0 0 0];

internalField   nonuniform List<scalar> 
77525
(
2.08723
9.36086
2.19218
4.88043
2.59596
7.44323
5.82761
2.997
10.35
3.14105
9.35025
2.80312
2.58903
5.53835
3.45861
5.37033
3.42419
4.76003
3.51312
5.28961
3.04128
6.72069
4.89519
2.73356
4.21673
6.49565
5.67945
1.19868
2.72404
2.75432
1.86318
2.32609
3.96037
5.82814
2.34966
7.37447
1.01793
6.36011
5.59323
1.86406
0.883524
4.73956
1.06032
4.41532
4.331
4.28524
3.77596
6.17922
6.27146
2.20326
4.17535
4.00097
4.15491
2.95227
9.06103
3.91789
1.01438
2.18194
4.53784
2.91065
7.34078
1.31415
7.78893
1.92696
2.54915
2.54886
4.36688
4.49189
1.88304
1.98323
4.94691
2.50772
2.73885
3.7198
5.8459
4.0043
5.04337
2.28211
3.41044
2.38752
2.90505
1.89077
1.71665
4.13536
8.40014
6.65455
4.73556
4.73496
4.72874
1.91423
7.04287
5.45633
6.69688
1.93921
2.02476
1.48169
2.31082
11.2795
3.2611
2.27766
4.23906
3.91599
3.87017
3.33093
1.00912
1.86828
3.01059
4.4451
1.54545
5.6491
5.60502
6.55555
3.84157
2.04555
9.67571
1.96136
5.13598
3.08115
5.01842
6.62546
4.32174
8.33439
8.35636
3.15004
3.15136
7.96252
11.4648
2.088
5.00699
2.73308
2.55959
2.94445
1.81579
3.41375
2.31758
3.73164
1.87778
3.86702
1.73433
2.03755
3.74463
4.83804
6.10925
5.32978
4.08728
3.15373
4.13754
3.65839
2.02798
6.16348
4.20177
1.3578
2.72071
2.38269
1.29216
3.8976
1.77032
3.77761
2.18097
1.98439
4.68191
3.2269
2.77391
3.44047
3.3695
4.72468
4.0675
4.42579
1.09117
2.10116
2.47584
4.72189
3.28022
8.47948
9.69389
4.29321
2.8981
2.69851
1.06661
1.42218
7.77064
4.98412
2.5298
8.79173
2.95651
2.07228
3.78426
2.7669
3.42723
6.04652
2.38372
5.01183
4.17584
3.82371
9.51319
9.4258
4.23812
5.0443
5.8745
2.11281
5.23434
5.21912
3.33205
2.50631
2.57709
4.98629
1.71841
1.76021
3.40627
4.22323
3.03658
3.35327
5.30086
0.809785
3.72528
2.47276
0.96144
4.14804
5.47083
9.31334
7.39547
3.06613
2.60012
3.06248
1.29783
1.88615
2.84496
4.6978
3.73372
6.06111
5.53154
4.21168
0.952813
2.51087
4.84627
2.06104
1.58211
3.15106
4.13556
6.07791
2.49153
11.8853
11.8507
2.93253
2.89388
2.70974
2.30547
6.00024
1.25469
1.96623
8.49552
3.00521
2.03368
5.29781
4.27371
2.25909
1.73972
2.69694
2.29835
1.00392
0.912614
2.60608
12.0601
3.08413
4.75701
8.86523
3.08872
1.72101
2.41915
5.57525
8.42561
4.78719
12.7426
3.61773
2.90502
2.28843
11.7908
9.42916
2.09144
4.42423
4.18435
2.1474
3.46206
1.98103
5.72921
6.1384
2.03057
2.46094
2.70029
3.99682
3.21971
6.83815
1.16848
8.97765
1.22156
3.72292
7.1707
1.16679
5.11851
6.7331
4.33468
2.58355
2.80853
1.45014
1.29512
3.0936
0.756793
8.54048
2.55765
3.19473
4.58269
3.33638
1.53362
4.06449
3.51447
3.90553
2.61825
3.06674
7.28268
4.32917
4.01701
4.48927
1.64069
1.45722
2.35575
2.5718
1.71052
4.24345
3.36421
2.98432
5.66192
8.09652
2.78773
0.874881
2.30419
2.73394
7.39212
3.45547
2.19754
2.01027
2.42178
2.08843
3.14955
1.9368
1.74986
2.03537
2.74462
9.37832
5.31812
4.32017
4.25083
1.24374
7.54653
3.50628
2.21726
1.27887
1.96539
7.91478
2.2916
1.67691
2.93863
2.26093
1.62578
4.65866
2.72722
5.45263
2.44809
3.26766
3.39982
5.41233
2.04257
12.5058
4.94383
2.16537
1.7784
8.84344
8.41264
8.66737
2.59903
3.20744
7.38609
9.79434
8.39088
3.68035
2.02349
2.13187
3.57669
3.00309
7.33989
8.41296
2.67241
1.37341
3.44774
4.26272
11.6487
8.45668
1.72199
1.25382
1.70055
5.26186
5.47693
3.8679
11.3827
2.90764
1.02791
3.54082
2.71177
2.5263
2.70706
5.64473
2.42487
11.6783
6.66752
4.02597
7.11519
5.28932
9.65256
3.15134
1.96214
2.13126
8.17526
7.47347
8.39065
5.9712
2.88519
2.21576
2.9871
3.53861
2.2512
4.44047
1.54737
1.54705
10.9355
4.74348
1.67839
3.1765
4.55435
4.74103
2.3117
2.27897
9.41262
0.715093
1.70841
0.701193
8.31184
10.7016
2.84928
1.40433
2.42287
6.44553
0.906348
3.93543
3.90331
4.12866
2.1128
8.26543
3.82841
2.64163
2.47431
1.25539
4.21779
9.75866
3.8388
1.3198
6.81354
3.0299
2.60747
2.33957
2.81526
5.57947
4.89056
4.6061
1.57779
2.01981
3.12967
8.91266
2.66296
1.51805
2.86822
2.54411
4.55611
4.27647
2.49541
5.02601
3.3722
6.18464
2.56301
3.03256
4.90262
1.95069
2.10742
0.960182
3.38392
5.1932
2.00642
3.56499
1.27388
10.1143
6.38015
8.68827
8.93187
2.42454
2.45398
2.14918
8.9159
5.11332
1.45217
2.63026
3.44126
3.35298
4.19245
1.2828
3.42563
4.23909
2.21306
3.82129
3.02998
1.8663
5.44872
7.33795
1.44184
1.80906
1.57569
4.36534
1.77091
1.11788
6.35426
4.35319
11.2485
9.3605
4.63432
1.89064
3.60787
3.21537
3.80543
4.3673
4.2375
1.50272
1.96139
4.45229
3.08633
6.1688
7.70748
3.19642
7.26116
4.54514
3.35814
2.45189
4.85223
5.16212
2.05542
2.50843
5.39268
4.51337
2.6547
2.72941
4.04815
1.49717
7.3822
9.83134
0.731914
2.5546
2.03725
0.956644
4.05429
5.33438
2.80403
6.1773
7.87211
7.3096
4.59706
4.80532
1.31172
1.50929
10.5931
9.86682
3.88157
3.85342
1.87707
1.70874
3.04731
3.19542
10.5894
8.30936
9.23927
2.47719
4.95987
1.19859
2.54618
0.838269
6.00108
1.26479
1.65884
7.11071
4.37172
5.65813
2.37878
1.87928
4.56176
4.74696
2.73471
1.38647
2.56844
8.66662
3.08209
2.21752
6.12053
3.19946
3.37283
4.38603
10.1618
1.57778
6.72523
5.7255
4.85811
8.42721
0.94524
0.959117
0.90405
2.44022
6.94289
3.70398
3.10907
7.28429
7.84801
3.90169
3.72989
6.75402
5.23512
3.09511
3.55466
3.40735
3.91213
3.2431
5.77562
3.75342
6.81464
2.52713
2.13168
0.799825
2.77824
2.48114
3.05725
1.87184
1.40556
1.91903
6.11432
2.60558
2.54012
9.0636
7.71027
4.33564
3.66817
0.976168
2.85005
4.06912
1.69644
0.822041
2.48469
2.17176
2.02182
5.93352
7.44532
9.94944
9.77356
4.07941
4.01418
4.59089
5.19459
6.58286
3.13267
4.22994
2.98897
2.95014
3.31687
2.5171
2.91547
4.08992
2.15776
5.0124
1.91427
3.0929
0.82346
7.41823
5.19056
2.10485
4.04017
6.78661
6.14984
1.27001
1.96637
2.51555
1.4364
7.73578
2.37258
7.58577
3.73704
5.79432
1.2087
2.51821
2.49966
3.16968
3.14677
2.48684
1.71459
3.93835
1.62029
1.79223
2.95197
2.20314
5.97802
5.43195
3.39304
1.95436
2.20145
5.36446
5.79133
6.60579
6.26351
4.27627
0.883988
9.66868
2.42976
4.91352
9.22519
3.82757
1.66365
2.4173
2.04588
3.15314
1.78557
0.797647
1.07482
3.28522
1.68155
3.93035
5.83476
7.93502
8.10658
1.57192
6.72376
8.08294
2.41494
5.31552
1.11338
2.7678
4.90104
2.08584
6.5169
4.28423
2.24295
1.00794
6.49695
1.07091
1.29609
4.87358
2.07466
9.74807
8.16444
1.06142
1.06048
1.60988
2.10629
5.90377
5.78373
1.33738
6.14758
7.73796
7.7866
0.69233
3.27097
2.18333
1.80537
1.81519
8.41921
1.32814
0.846088
2.36369
1.79945
3.1124
3.45946
5.67804
5.39928
4.02307
3.82291
2.15589
1.65343
1.95697
1.69188
2.26211
1.36677
1.27128
2.35837
2.21033
8.58566
2.83345
4.35577
4.03051
3.5375
1.74696
8.10486
5.02669
3.86833
2.45186
7.3007
6.91965
7.46934
1.73797
1.36273
1.03753
1.72823
1.73755
1.80179
2.12606
3.96134
4.10976
7.11796
4.33306
3.48419
1.51624
5.28412
2.57922
6.56948
6.70515
3.19019
0.772269
8.90429
2.27932
1.85705
5.71879
5.09701
1.53155
2.0368
5.97148
8.29064
3.19362
2.01547
8.64541
3.30082
0.843139
3.09891
8.43841
7.0885
2.27159
2.9072
7.53759
5.24841
2.15138
3.93171
1.40784
1.67056
1.3969
5.55871
2.05779
7.91281
1.85246
5.11708
4.0519
1.08097
1.16237
2.15832
1.95418
4.46558
11.839
10.7365
3.24216
2.28074
2.54573
3.6136
3.25757
1.28567
9.61497
9.55176
3.27863
2.05181
1.18693
2.9105
1.66387
1.82057
1.74954
8.07553
6.43769
3.42266
4.35248
2.47193
1.65524
7.70793
8.50442
7.43967
8.04154
1.85207
1.68821
4.16156
2.18569
1.43786
4.03806
5.75451
5.24489
1.16327
1.77839
2.81137
10.9777
1.75635
7.52138
7.14694
9.18979
2.6222
1.84886
1.00254
5.81086
7.75964
2.64552
2.36156
2.58532
2.45463
1.63251
4.72134
10.9837
4.69472
4.39662
2.74604
2.48313
4.24426
12.1131
10.5243
8.34409
6.91722
2.61681
4.29372
8.14316
2.16307
6.30571
1.62833
1.60819
8.76677
3.01822
2.92907
2.79516
5.52592
5.65344
1.77157
7.07067
2.79075
6.07387
3.9475
6.78485
4.36808
2.77823
1.18712
11.5477
2.77366
2.7708
1.76499
6.73967
5.19709
10.0822
3.68936
3.32023
4.11255
7.71036
4.98943
5.3726
1.51683
2.20427
2.73849
1.9134
10.7456
2.80154
2.08634
1.59046
6.81158
11.4873
5.41939
8.07741
7.91159
5.12788
1.84774
4.06331
2.07739
3.18632
2.10562
2.33415
1.07065
1.8599
2.13363
1.08778
2.32115
5.93325
3.028
5.59179
1.4765
1.49965
1.86814
2.22523
2.30783
7.73175
1.31365
7.28879
3.4819
2.47428
2.78971
3.22951
1.85292
3.45835
3.05676
2.3052
2.08665
3.77674
9.85214
4.10406
2.73957
11.2379
2.76088
2.53375
1.30472
1.76435
3.13192
8.54401
8.14497
4.38716
6.31813
11.0951
6.05232
1.12603
2.93905
2.6935
4.88662
4.83594
7.42687
1.6859
1.55967
1.93984
2.80225
2.51431
3.82576
1.93271
6.75955
2.52201
3.18392
1.85698
10.0559
5.40673
6.79761
1.80409
2.02118
3.12975
3.14545
2.12345
1.9281
1.56949
1.63874
6.24234
1.72458
4.78087
2.24778
1.92487
1.45795
4.29403
1.64712
9.97269
9.85339
1.38984
9.62206
3.51042
1.79141
5.11634
1.64816
9.5483
7.06156
4.6539
2.49806
1.44818
0.992107
3.06008
3.16391
4.72656
3.67101
0.898258
7.13323
3.24403
2.80553
2.19415
8.65788
5.14759
2.4298
2.18214
9.38814
4.06882
2.32767
1.73893
9.68209
2.47896
7.82993
2.08532
6.29191
1.0106
1.52567
1.44758
2.50007
1.8379
5.1457
1.64923
1.79152
2.26358
5.32424
2.14886
4.2835
6.18409
1.05332
5.49751
2.19314
5.44407
1.37716
4.04798
0.872282
2.41375
4.83667
4.16325
5.55292
1.90693
2.96007
5.09841
1.67159
8.17316
8.06266
2.0796
2.53297
6.99388
5.04087
3.03564
5.08606
1.86955
3.81485
4.28331
4.66775
8.74529
6.52129
6.58348
6.82895
2.37185
1.73509
4.09783
2.16499
3.73972
9.09286
0.988593
2.8414
1.90249
5.10098
6.23648
2.07141
7.26964
2.27277
9.04769
8.09998
2.22357
3.93367
2.98803
2.03678
4.34438
2.09451
1.21349
2.74186
3.81765
4.79792
5.18678
2.27199
3.53155
1.64361
1.08801
4.76074
2.52854
4.61175
4.88053
2.50279
1.07378
1.62516
0.898007
1.5212
8.55841
6.58886
2.64119
6.21929
3.57409
3.83748
1.83423
3.52149
3.58062
8.56731
2.98373
2.30279
1.69997
7.04031
2.89561
7.95326
4.16751
8.63397
3.17618
3.64303
10.2655
3.38273
1.95024
1.2262
1.36199
3.06542
2.13401
1.96264
1.32596
1.56556
6.55259
6.81403
3.53313
4.75522
1.71786
10.0386
5.47933
1.92766
1.91379
8.278
7.1363
2.40968
3.42674
1.49676
8.15934
7.51724
3.63821
3.42759
9.35
3.76113
1.81084
4.16475
3.37883
8.06418
6.59153
7.71769
3.09167
2.74072
3.15089
1.59021
2.37429
1.72676
4.91
2.37648
7.59619
9.82699
3.80486
5.92603
0.924205
7.65912
5.34167
2.75454
8.45072
3.3095
8.29254
4.90083
7.51104
1.76928
5.37722
4.51487
6.39389
3.04188
1.1896
7.07121
1.23306
2.22625
1.13603
7.70097
7.40907
2.20882
2.01316
4.73707
4.26964
3.29539
1.79244
2.03656
4.2727
2.01788
7.68125
2.02698
4.40463
3.03437
3.61557
4.30547
11.1294
1.58829
6.74725
9.13285
3.54653
2.76593
0.889668
3.73179
2.52493
3.47287
5.67534
6.52184
2.10141
1.79101
1.56718
1.76692
1.92846
1.67083
5.45559
6.53175
1.84505
9.77166
6.67444
8.29524
2.45556
10.361
4.31967
4.36013
2.89134
4.61131
4.30146
4.11677
4.19265
2.37018
3.04647
2.80306
2.44792
2.14421
1.06243
4.75595
1.28245
3.15739
4.98208
3.69714
3.83317
2.67962
3.339
2.71489
4.26451
2.0411
2.14632
2.19098
3.31953
3.25509
4.89139
5.96077
3.12298
12.406
1.61894
1.10312
2.47764
3.5536
4.24748
2.72793
3.8993
5.7553
3.25782
6.64753
3.18424
3.18981
9.41147
1.94217
2.12779
5.48965
2.3281
3.14961
6.50381
3.06014
4.73972
3.98243
8.76972
1.79481
1.01548
3.69149
4.6009
1.53037
10.318
2.42089
3.27066
4.35544
4.39567
3.0846
2.94572
2.76142
3.56682
3.50617
2.50263
2.00862
3.62981
4.20832
1.48135
1.63476
3.39474
4.32234
5.97826
3.99337
4.61158
11.0826
0.496522
9.90228
3.86889
3.87811
4.26904
4.0707
2.29825
1.1331
1.06311
1.98126
2.06021
2.90878
5.47856
9.3916
2.71618
3.88888
2.35528
2.6278
4.35656
4.48552
2.35869
10.5377
8.54812
4.291
3.25623
9.10955
11.969
2.20202
3.3625
3.11483
4.78192
3.86796
7.202
0.976903
7.83292
10.1447
7.47781
7.28894
3.51133
4.18225
3.4158
4.41031
1.90118
3.12177
4.58427
1.60925
1.7842
8.86911
12.041
1.37566
7.04728
8.88731
1.96061
1.96769
3.74439
1.85844
4.38446
3.56973
1.90315
2.367
2.34531
5.4929
7.76151
3.80419
6.32328
2.89455
3.30806
8.9541
10.6134
2.22822
2.35704
7.52716
6.62442
3.39224
5.37747
2.52541
2.56599
3.81436
2.89818
4.49162
1.10839
3.05173
1.43951
1.66463
2.80854
2.46546
3.51467
2.97824
2.14723
5.877
5.8682
8.18521
4.64205
1.46994
1.45821
3.60051
4.29726
5.09284
6.07917
11.8415
4.14691
3.10465
2.30148
3.00675
4.09119
1.45439
2.0655
1.64057
1.78764
4.77427
6.44929
3.59397
1.38555
7.11633
3.75863
0.669591
5.26054
3.03905
3.71039
6.43727
5.31725
1.4167
1.70205
3.02877
3.52102
5.5615
5.59745
11.2066
3.05784
3.25154
4.11108
3.1349
10.4272
3.00502
2.32422
2.02649
6.58356
1.61052
2.03371
2.02002
3.11091
3.03689
4.67423
2.45686
10.3738
4.83599
5.03236
1.93729
6.75631
1.30137
3.65363
3.09399
3.24347
1.07773
7.69117
9.29994
4.46905
8.33434
8.46379
4.89048
2.30473
1.0259
4.87416
2.04719
3.58984
1.07045
1.21268
2.23587
3.51989
0.959241
10.6604
2.6775
10.3354
10.3432
6.70009
6.34434
9.80632
4.15826
1.82999
2.60208
2.159
4.9086
3.41508
8.55572
1.09897
4.11859
4.05784
3.01729
3.07189
1.01583
1.93209
1.63835
3.15576
2.30925
9.17893
2.85609
2.45563
3.37993
3.93995
3.81441
2.53465
2.20499
7.10695
3.80254
4.88281
4.96841
2.26843
3.28361
2.45374
5.97443
4.66788
6.19123
3.78016
9.77948
2.75216
2.24264
4.23613
6.63274
5.72896
1.68098
3.10446
3.16803
1.3963
1.03049
2.73559
2.34449
3.00815
11.5481
3.28028
2.65828
4.56362
4.36524
1.50903
2.00314
1.99305
4.3762
5.61843
2.48072
9.30825
2.0071
4.37409
2.84503
2.77631
4.01999
3.11585
3.26956
2.56074
8.5526
1.59031
15.9441
1.85482
1.91385
2.01055
5.57876
3.01144
2.44372
5.2389
7.79404
7.39193
4.88228
3.17803
2.93694
2.45099
6.75543
1.39904
3.71116
4.49276
2.25796
8.26821
3.64674
3.67279
9.71424
3.24944
5.66365
5.76359
8.35851
4.87874
4.33244
2.73767
5.87343
2.24437
2.60275
3.26772
8.38469
2.37519
2.99245
9.98208
6.66131
6.61176
5.18959
2.67702
1.47569
9.00896
4.95933
5.29491
9.1814
6.37194
6.56293
5.52327
4.98118
8.03066
7.83317
5.24451
2.88001
9.84184
5.73663
5.92929
7.79442
2.33145
4.6281
8.46491
2.47414
5.32201
2.62683
10.0658
9.51532
9.47985
4.70028
9.61273
3.66088
2.5444
3.09748
4.58018
2.66161
3.05229
9.13239
8.29914
7.54667
6.23503
5.72973
3.49801
2.23366
2.63659
9.37264
4.5216
2.0844
8.57661
1.20745
2.04286
4.55225
7.13361
3.33379
4.05116
4.8635
2.58466
2.54625
7.59012
8.25327
2.52259
1.34174
3.68877
8.59916
3.12264
3.78249
2.76611
4.2584
1.32458
2.01782
2.09793
4.87935
4.92821
1.91897
1.60973
2.83209
5.26097
5.93222
1.93194
3.17258
4.61971
8.73483
2.51418
3.67621
4.46201
4.48064
9.46157
7.70314
4.74417
6.37952
3.56353
7.04448
3.01259
5.62562
5.15492
9.05017
4.11284
1.43218
5.80782
5.6119
5.80716
2.9743
2.92158
3.87586
3.49757
7.30843
3.81094
5.90281
6.1245
2.55514
13.1329
4.24189
4.18497
7.30398
1.37426
1.68662
9.60363
5.77018
6.4682
5.3071
4.56479
2.76394
2.92453
1.86299
2.20204
2.1537
9.6386
2.46103
10.9972
9.15424
1.83988
2.90135
4.61469
1.32274
1.6011
9.05186
8.84347
7.54325
5.33359
9.00892
5.93126
5.92055
5.12624
2.60382
8.33521
10.2769
3.02228
3.76466
14.69
2.79732
2.67329
2.48067
1.99452
11.8983
4.91014
2.23389
1.70655
1.79849
5.39102
4.8739
2.30629
4.57285
4.29405
3.49222
4.09112
0.961087
2.44504
2.76517
3.36181
2.07627
2.56015
2.28571
1.93327
2.39542
3.19648
1.65574
2.66551
3.08207
3.32443
2.75804
1.65585
8.64555
1.3655
2.0654
4.332
5.04553
3.74422
3.59981
2.00275
4.05854
6.35842
3.87575
6.98439
1.02232
3.60348
2.81122
2.86903
6.87335
2.12922
5.89717
5.96897
10.6042
8.16737
6.72768
3.68069
5.6118
5.21888
3.37014
7.83845
8.72395
4.40414
3.02581
4.03414
3.6466
2.32836
2.53254
6.25077
4.44906
8.71219
3.22043
7.82704
8.5793
6.12114
3.63516
2.43667
3.9416
5.19871
4.30573
3.48402
2.61484
5.79506
6.24543
8.81594
2.14772
9.58096
7.99308
2.28082
4.24773
12.2435
5.20521
3.86203
1.5758
2.6376
7.12263
8.34477
3.39901
2.07801
2.971
5.94322
3.39725
9.33248
1.4868
5.25347
5.25529
3.73547
3.67025
7.64805
2.31582
2.84558
2.18743
5.684
7.85556
4.87742
1.68381
3.61928
2.18055
9.07938
3.92165
4.36112
4.08237
2.8389
2.35882
4.70766
2.06248
2.03155
13.7332
6.11717
5.32009
1.59699
8.62763
5.73433
7.91727
8.78766
2.65716
7.4698
5.57085
7.46135
5.62017
5.677
2.49556
2.50581
8.38487
0.870009
5.1211
4.18188
2.76373
6.58336
3.12396
1.16072
1.49543
2.19152
1.94233
5.74184
6.55865
6.07522
7.39282
6.96456
3.55216
6.42061
5.86829
4.37626
1.4119
4.86755
5.78646
6.11795
1.62261
2.84674
7.23405
4.13311
4.29704
3.57139
1.0839
1.12473
5.69654
5.28023
1.67288
3.68543
8.36907
1.23383
1.51248
8.80673
12.8335
13.7007
4.69691
6.33672
4.52783
5.19067
6.64397
4.0285
4.05105
4.60018
5.59563
3.88743
3.58103
2.25632
2.29788
1.98643
6.78006
4.24505
1.99977
6.74654
4.26279
4.16561
4.32505
3.49192
4.70783
4.53199
3.07143
2.8206
3.22348
3.54055
4.23444
3.55306
3.97732
5.33363
6.43361
3.68396
3.12223
2.0855
1.91292
5.73813
1.77436
4.14841
4.20336
3.83513
2.01162
4.37638
6.80057
4.83736
3.98964
3.90855
5.12731
6.55517
5.67012
2.23985
4.46529
5.15024
4.80919
3.40791
5.70752
4.11404
4.37893
5.48168
4.58534
5.16278
9.39613
3.95641
3.61275
2.96944
5.0934
4.76933
3.16135
2.71796
4.74574
10.6152
3.0348
2.62085
1.95734
3.54258
4.82452
3.0455
3.78934
5.73375
2.38952
1.56538
5.05271
2.76588
2.12468
2.78206
1.60923
7.6178
3.0242
2.68567
6.61589
1.58939
2.28603
3.29308
3.93885
3.84479
3.85446
1.52362
2.27274
2.12012
5.32989
1.7646
6.92113
8.01375
4.96275
6.37917
2.79375
3.34328
5.84313
5.82153
2.00082
3.70005
3.9793
4.51862
9.02556
5.39397
13.4131
2.38067
4.74731
2.9034
4.68626
5.44093
2.11257
3.69032
1.29725
3.73631
5.70767
8.249
9.44532
8.85424
1.75255
4.0538
7.85633
4.27168
2.22606
2.0916
5.56188
2.78635
5.31791
8.93399
5.34394
1.24516
1.9293
5.4936
8.29506
2.23064
6.82533
5.26549
3.85273
8.36485
11.4495
3.35288
3.6422
6.35508
1.36747
3.82685
6.57056
1.83324
5.69355
9.64772
6.3745
14.9816
12.3702
3.79109
3.32652
5.81908
4.19901
6.02323
2.35058
19.0353
3.92035
7.98555
4.75057
6.0199
4.05173
10.4427
3.61282
3.51729
5.96124
10.4256
2.25173
4.12021
3.77917
3.30696
2.62015
4.39979
2.40369
4.07728
1.29744
2.66754
3.75912
3.34748
4.70351
3.10272
2.37233
2.6399
1.95461
3.36453
2.50277
20.7108
2.57528
3.2512
3.37052
3.38989
15.2943
3.48936
8.77109
5.13805
12.0125
8.92709
5.37937
19.3501
7.27272
17.8389
7.177
4.0596
7.6647
6.17426
9.29553
5.52119
7.14712
7.73826
8.35601
5.18259
9.99035
8.39225
6.86851
6.85439
10.5181
8.64907
1.77791
5.68071
5.48416
4.33257
2.97265
6.80788
8.8848
3.06507
12.4766
1.52375
10.6445
9.10122
3.69539
1.34631
6.97861
1.54385
7.1465
6.96129
7.50624
5.12553
9.71816
8.97183
3.60436
6.90068
6.42096
7.64401
3.21446
13.5945
5.60621
1.51938
4.09334
6.51402
4.17662
12.0936
1.573
11.7412
3.10016
2.98096
2.98523
6.28677
9.74779
4.15508
4.29574
8.72163
4.09156
4.60215
5.72604
12.2748
6.13428
8.34071
3.94782
5.18963
3.07412
4.87068
3.14164
3.56841
8.50951
12.1075
9.79614
8.10592
7.80824
8.69454
2.76293
11.0128
7.66049
11.1857
2.11953
2.62716
2.2141
5.02161
22.0125
4.541
2.82556
6.59689
7.25362
8.22273
8.1313
1.24217
3.83462
5.97991
6.97275
3.5847
9.82372
8.10134
11.4632
6.54044
3.75511
15.554
3.86606
7.70573
4.86916
6.88829
11.5984
9.29504
13.2182
13.8769
6.89471
7.31549
15.8158
20.2832
4.1499
8.07521
5.56621
5.55219
5.68657
3.71187
4.63784
4.54808
5.98002
4.59849
6.73797
3.29612
2.89179
5.6062
7.87948
10.0267
9.93993
7.37073
5.7969
6.10641
5.19883
3.86573
9.65297
9.16828
3.28039
3.57254
3.9963
2.97827
5.802
3.08245
6.62318
2.97253
3.00621
7.87274
5.15973
4.56171
4.79779
7.61247
8.84612
7.3312
9.9909
1.90858
2.76117
5.48948
9.44382
5.94136
14.5434
18.2703
7.54431
6.88716
6.10477
2.01337
2.60761
11.6758
9.77226
3.75107
15.1001
5.4126
4.10441
6.04983
5.28737
6.76976
9.86023
5.16228
7.8015
6.35905
7.39919
15.8564
18.1162
7.40492
10.2965
8.86197
4.34945
10.3772
7.81081
5.08303
4.1828
4.37398
10.3818
3.4828
3.27773
5.79853
8.10308
4.74035
7.27996
10.7589
1.11884
6.34011
4.26996
1.76137
6.69468
8.54859
17.3751
13.6445
4.93121
4.7023
4.83313
2.49245
3.9216
4.81495
7.372
6.82829
11.9478
7.38469
6.67377
1.39298
5.24839
6.96548
5.41432
3.70127
6.38519
6.40151
11.4191
5.02897
20.7119
20.2682
6.5379
3.65613
6.06392
3.40284
9.70281
2.18021
4.00568
14.0544
5.69532
2.85545
8.30907
7.2171
3.32743
2.30171
4.04108
3.16195
1.56695
1.51611
3.65679
22.1651
5.51709
7.01001
15.2977
5.9017
3.22487
3.98354
10.6055
12.8555
7.00376
22.2018
6.89706
4.13793
2.98924
21.2864
17.812
3.961
7.17881
7.19357
4.46756
5.17907
3.44876
9.45764
9.49359
2.63383
4.68994
5.8272
6.47489
4.80377
10.6936
1.26345
16.4212
1.94079
7.43567
10.7756
2.45953
9.01621
10.6763
9.41154
4.97962
4.57981
2.94302
2.2239
5.71196
1.44878
14.2457
3.16343
5.48782
7.95607
4.9924
1.86362
6.0732
6.95699
7.24783
4.51949
5.05249
12.3055
8.07181
6.90346
7.34969
3.59754
3.63114
3.91153
3.84576
3.40351
6.59055
6.85376
6.02839
9.53346
13.6295
4.1007
1.37099
3.97394
4.37614
13.3038
5.6288
4.51562
4.29359
4.64708
5.43141
6.92856
2.44511
3.7314
3.46375
4.75851
16.7639
8.92033
8.54693
7.54327
2.20762
11.3737
5.22264
3.39205
2.24787
3.27914
12.7863
3.61337
3.18838
5.08759
3.2817
2.95563
7.17296
6.28358
10.2604
3.37728
4.61544
4.35808
8.16055
2.64049
22.1291
9.74048
2.95462
2.29667
13.8395
13.5436
15.379
3.89155
4.38101
13.1163
16.5303
16.6656
4.88014
3.42327
4.03311
5.88689
4.8718
10.686
13.2159
4.57501
1.69153
5.53009
6.37788
18.8656
13.8042
2.22036
2.43506
4.35974
8.4486
9.2459
7.76765
20.854
4.41262
1.58365
6.96178
5.56524
4.49259
4.88463
9.08384
3.94873
21.5053
10.1354
6.96795
11.1059
9.48448
15.6037
6.71878
4.08689
2.77529
13.6335
12.6386
13.6643
9.11659
6.1534
6.07854
4.0281
5.9947
6.23683
9.0132
2.2947
2.85088
20.3591
7.34786
2.75207
4.46303
9.76458
7.36558
4.8436
4.78923
16.5388
0.877396
3.20704
1.52237
13.7862
17.874
3.93165
1.83967
3.83864
9.93386
1.60532
6.1617
6.0525
8.10778
3.79822
15.4157
5.7345
4.82331
4.45559
1.80223
6.48311
16.4326
8.10383
2.4711
10.2622
4.47859
4.03277
3.71302
5.31183
8.76531
8.09213
6.32195
4.14555
4.21538
4.91279
14.3691
4.46655
3.51984
4.43587
4.29129
7.05383
6.8166
5.06142
8.92905
5.01642
9.43131
4.45845
4.2072
7.33611
2.90083
3.42109
1.487
8.12089
8.11807
3.76432
5.62963
1.91236
18.3824
10.1021
14.4734
15.8646
5.14734
5.10936
4.34538
16.109
11.448
2.29092
4.08027
5.59809
5.62747
7.24673
1.48318
6.92559
8.62255
3.98164
8.39136
4.43552
3.67491
8.55726
11.8393
2.83663
3.48306
2.53311
9.01574
1.91606
1.53227
9.4783
6.29303
18.6725
15.3034
9.52358
2.92302
7.02185
6.04989
6.97233
8.18267
7.96875
2.43682
3.75311
10.4543
4.67473
9.27127
15.8683
4.77219
11.6086
9.37033
8.19518
3.59681
9.9414
11.4531
4.42008
3.56181
9.66752
6.87951
4.44814
4.54749
6.78515
2.68312
14.8315
16.3182
1.54794
3.64457
4.52019
1.47975
6.11917
9.0782
4.57429
9.35783
13.019
11.2629
7.24779
7.41386
1.7641
3.041
17.2512
17.0026
7.97627
7.76006
2.94958
2.19188
8.44196
4.46324
17.657
15.8694
16.5823
4.04066
7.80006
1.46586
4.96192
1.37756
9.18063
1.49551
1.91424
13.5576
8.30424
8.7266
3.22852
2.69144
8.51153
7.01637
4.6697
2.78783
4.48614
14.0935
6.23125
3.41252
9.58936
6.19875
4.52362
6.82156
17.0739
2.4965
11.0601
8.57514
7.07287
16.6209
1.30318
1.89587
1.83443
3.58341
11.6587
7.35759
5.40881
12.3997
13.1999
8.9437
7.6208
10.7629
7.38038
4.61917
7.90257
7.2723
7.5019
6.99681
9.28256
7.68968
11.0573
3.47163
3.14746
2.34448
4.60299
4.43507
4.55772
3.05317
1.83986
2.89168
8.74748
3.47148
3.40292
17.4243
13.7215
8.48681
6.94949
2.00391
6.04274
7.37839
2.74747
1.56996
3.03229
3.38596
3.30261
8.78934
13.0393
19.0376
17.4246
6.95329
6.94676
6.69792
9.80169
10.9021
4.75271
7.31458
5.34365
5.09215
4.80404
3.51202
5.07852
7.96768
3.25819
9.18297
4.16201
5.29004
1.2919
11.7173
7.42556
3.29822
7.4383
10.8562
12.4953
2.47146
2.63729
4.73199
2.32972
12.2675
4.70692
12.6388
8.93306
9.67774
2.19443
5.60606
5.63195
4.66641
5.00231
5.56653
4.25394
6.8049
1.65203
3.16701
4.13491
3.46662
9.43761
12.0474
6.17236
3.29627
2.65396
9.78659
10.8063
10.3276
9.18169
8.88629
1.56335
17.7434
5.69732
7.69092
17.2656
5.63654
2.8864
5.53114
2.88762
5.88474
2.97038
1.57133
2.31047
6.09306
3.07881
6.20654
11.6688
13.5271
12.88
3.60259
9.83693
12.119
3.8396
8.42679
1.69655
4.01843
8.14606
2.18699
10.8276
8.21307
3.63251
1.73467
10.414
1.9987
2.50592
8.78696
3.62896
16.2866
14.1209
2.07
1.97831
2.65813
3.90577
9.9525
11.3919
1.66556
12.3585
13.2703
12.3194
0.860598
5.70431
4.04703
3.17608
2.61974
15.2142
2.219
1.33897
4.2052
3.30273
5.07985
5.10273
9.36285
8.57111
8.07516
7.8671
3.21216
3.39221
3.7651
3.68947
3.13403
2.91317
1.98778
4.2018
3.73676
13.982
4.41206
7.1916
6.63886
6.45977
3.48639
13.9635
7.24515
5.69791
3.5117
11.7702
11.4426
12.1393
2.37039
2.46842
2.24207
2.89523
2.80515
1.89321
2.62983
6.72578
7.34777
13.1365
8.58944
7.74276
2.87055
8.03422
6.81548
10.1159
11.315
7.26945
1.53399
16.391
4.2871
2.88101
9.32529
7.6849
3.07112
2.48372
10.092
12.6327
5.66107
3.70986
13.7473
5.57732
1.43486
5.14509
14.0539
11.3069
5.09087
7.17296
13.3434
9.51166
3.23665
8.96089
2.51782
2.25596
2.34641
10.2026
3.49209
13.2431
2.84396
8.29957
6.90147
2.36826
1.80796
3.15495
3.59128
6.45292
20.533
18.4762
5.59252
2.76315
3.57006
5.39761
4.62731
2.18566
16.8699
16.2867
7.21498
3.25879
2.72674
5.74218
3.38018
3.39978
2.54258
13.4805
10.4673
6.54555
9.63102
3.83351
2.57607
13.1403
13.8394
12.7978
13.1552
3.69149
2.98532
10.025
4.65936
3.99535
6.22295
10.6894
9.27971
2.31017
3.9304
4.38907
17.8049
2.79941
12.2107
11.3212
16.3272
4.2738
2.55156
1.43094
12.479
14.4831
5.16902
4.48039
4.80798
3.85334
2.25737
8.47553
18.5932
6.83976
6.555
5.36329
5.6976
7.528
23.5277
21.5015
14.5139
10.5528
3.69185
6.64562
12.3654
2.54457
9.49964
2.25165
2.32605
13.7311
5.28022
3.85643
3.98733
9.01865
8.30048
3.69357
10.5809
4.19447
9.4909
5.70937
9.49341
7.27962
4.65555
1.55132
19.8118
3.51001
3.70885
3.64728
11.6509
8.61768
18.1036
5.92958
5.01798
6.76244
14.7067
8.83077
8.10234
2.0667
3.44199
6.53241
2.9377
19.5702
5.26338
4.54322
2.26733
11.015
19.6648
8.63234
13.8369
13.4648
8.13799
2.75899
8.08125
3.84734
5.18085
3.69092
3.67723
1.50226
4.27184
3.73205
2.2296
6.71049
10.9449
4.76737
7.8895
3.60607
4.0071
2.65749
4.78841
5.47806
12.4307
1.48737
11.5048
7.38609
4.91607
4.10839
6.08664
3.35207
5.24094
4.6246
4.16172
3.60051
5.74223
17.6445
5.5128
4.08076
19.0334
4.12313
4.08296
2.28787
2.58202
4.3035
16.4604
13.9144
6.83233
10.5765
18.6949
9.73259
2.22344
5.80494
4.66302
7.21422
8.11729
11.94
2.2301
2.81164
2.61583
5.74953
3.75256
7.21841
2.85999
10.7587
4.44226
4.47933
2.10173
17.0085
8.40399
10.3391
2.74771
3.23836
6.70536
6.81868
3.61726
3.40288
1.87869
2.19007
11.0508
2.39037
8.48242
3.84878
3.78219
3.28896
8.5801
2.67413
18.1307
17.7837
1.52384
15.7289
5.61388
2.26756
9.91289
2.22852
15.7324
11.1718
7.98107
4.51893
1.76031
2.02282
4.20717
4.64645
9.75334
5.7406
1.58139
12.0007
5.61524
5.19813
4.75286
14.9269
8.48899
3.84462
4.41065
15.6592
5.356
3.71376
2.61529
15.37
4.41986
13.5043
3.31457
8.9205
1.3054
2.29307
2.20475
4.60821
2.17139
7.09555
2.99133
2.21543
2.84858
8.51245
3.46641
8.24876
9.19227
2.20749
9.30442
3.34662
8.68992
2.85511
7.73632
1.24257
5.42271
7.4925
8.34279
10.4775
2.90006
4.3068
7.91437
3.26399
14.3438
13.8664
4.78591
4.52844
11.9876
10.1608
5.23375
7.73297
2.61757
6.53939
7.30909
6.77461
15.047
10.1657
10.0941
10.5064
3.97441
2.58919
7.8093
2.86401
4.88489
15.186
1.18954
4.284
3.23775
7.78327
10.5051
3.82619
12.1211
3.08567
15.0775
13.7996
3.07741
6.0011
4.29182
3.71075
7.59767
3.36531
1.90521
4.59431
5.99994
7.20999
9.06059
4.50087
5.50257
2.6203
1.57143
7.8475
4.71142
8.18035
8.56998
4.25689
3.25158
4.28743
1.39962
3.29725
15.0235
9.33806
3.34206
9.64017
6.0694
6.61779
3.37401
7.30796
7.20867
14.2918
5.77197
3.59534
3.19117
11.1719
4.07807
13.981
6.2144
14.7065
6.86167
5.47883
16.7744
5.06808
4.03717
2.90849
2.34768
6.23835
4.47357
3.76848
2.22794
1.77765
10.6497
11.6166
5.80946
10.2095
3.17118
17.5657
8.9846
2.70766
2.61587
13.5252
12.0101
4.82322
6.56935
2.02202
14.2183
12.0987
7.42552
6.98547
19.1537
6.18495
2.53159
7.08746
5.16246
13.9347
10.4696
12.9738
5.43079
5.17317
7.0696
2.54767
3.67296
2.69014
9.397
3.50293
13.7667
18.338
5.40188
9.53627
1.75326
12.6512
8.16503
3.7515
14.1414
5.5449
13.862
8.30284
11.9985
3.19376
11.5397
6.76427
8.86626
4.62569
2.31521
10.9589
1.89328
4.40322
1.68092
14.6348
14.1092
3.7863
3.75691
7.75268
5.36043
6.0392
2.17973
3.44504
9.33039
3.17784
13.3901
3.04501
6.33704
5.62423
6.93701
7.2958
20.9688
3.19865
10.9956
15.6701
4.93974
3.7205
1.24728
5.49224
3.65506
7.24981
8.76241
10.2311
2.61941
2.71275
2.53014
2.30018
3.10851
1.95689
8.68548
10.06
3.44934
17.3783
11.2643
14.6607
3.11558
19.2045
10.1485
6.78756
6.14361
6.75856
6.88206
8.44611
6.47349
4.25139
5.86423
5.48585
5.4438
3.13243
1.47256
6.71283
2.8245
6.11126
7.85902
5.45007
5.40327
4.19714
7.61882
4.03864
8.36654
3.52461
3.42452
3.63949
4.97546
7.87763
8.69594
10.3215
3.94873
21.1437
2.45074
2.10463
4.6906
6.12669
7.75293
4.97425
7.85948
12.0287
4.25935
13.7013
5.35803
4.78124
16.7147
3.34301
2.98743
9.57281
4.00817
6.76041
10.7733
6.49047
7.19946
6.88501
14.3975
3.52088
1.2407
5.69214
7.7255
2.83835
17.2413
3.09227
7.14249
8.32019
6.89278
5.75098
5.77294
5.62771
7.10278
5.45326
4.34559
3.89113
6.28662
7.52097
1.78968
2.10193
4.95697
6.09186
8.59262
6.07285
6.702
19.5664
1.64695
17.9895
6.47099
6.04828
8.35897
7.35017
3.34403
1.59552
1.70156
3.61734
3.27201
4.98693
8.10586
15.6835
4.09909
6.27508
3.8324
4.07348
6.13802
6.34516
4.24733
16.2764
15.4766
7.8339
6.01919
15.2747
20.1142
4.10135
5.05634
4.57045
6.99175
7.89211
10.3141
1.5127
12.1387
17.3156
11.889
11.9893
5.44649
6.13263
5.90085
6.08583
4.41134
6.06139
7.58551
2.81715
3.1432
15.2571
20.6603
1.3866
11.2754
15.1143
2.82194
3.18333
7.00143
2.58757
7.66875
6.37008
2.45691
3.9626
4.11982
8.25716
12.6054
7.55665
10.1095
4.33826
5.9832
14.0558
18.4255
4.0449
4.66428
11.0619
9.85797
6.72076
8.16051
3.29758
3.26143
6.84521