/*--------------------------------*- C++ -*----------------------------------*\
| =========                 |                                                 |
| \\      /  F ield         | OpenFOAM: The Open Source CFD Toolbox           |
|  \\    /   O peration     | Version:  2212                                  |
|   \\  /    A nd           | Website:  www.openfoam.com                      |
|    \\/     M anipulation  |                                                 |
\*---------------------------------------------------------------------------*/
FoamFile
{
    version     2.0;
    format      ascii;
    arch        "LSB;label=32;scalar=64";
    class       volScalarField;
    location    "10";
    object      nut;
}
// * * * * * * * * * * * * * * * * * * * * * * * * * * * * * * * * * * * * * //

dimensions      [0 2 -1 0 0 0 0];

internalField   nonuniform List<scalar> 
77525
(
0.000934815
0.00141785
0.00110647
0.00108356
0.00109533
0.00120478
0.00102208
0.00104227
0.00111029
0.00160801
0.00114546
0.00241064
0.000694408
0.00126781
0.00112894
0.00113904
0.000742846
0.00116145
0.00125362
0.00100813
0.000805568
0.00145692
0.00113786
0.000979726
0.0011696
0.00107293
0.00127957
0.000599672
0.00103021
0.00116203
0.0012021
0.000669223
0.00102712
0.00131022
0.000868722
0.0011252
0.000994301
0.00139993
0.000923327
0.00156458
0.000883365
0.000914694
0.000811209
0.00105001
0.000993203
0.00122308
0.000755889
0.00117298
0.00115789
0.00108975
0.00152175
0.00151857
0.00100565
0.00176012
0.00136815
0.00110026
0.000720856
0.00132897
0.0013521
0.00117233
0.000986298
0.000668532
0.00130923
0.000865433
0.00138054
0.00147098
0.000963221
0.0020418
0.00183442
0.0016178
0.000852096
0.00121901
0.000921925
0.000803178
0.00106651
0.000854107
0.00138951
0.00101256
0.000834264
0.00134407
0.000635254
0.000933304
0.000725929
0.00114078
0.00133617
0.00139039
0.0012937
0.000906865
0.000941351
0.00115358
0.0015833
0.00119651
0.00140545
0.000796629
0.000638932
0.0014222
0.00193936
0.00133188
0.000686336
0.00082558
0.000871249
0.000996873
0.00127085
0.0008582
0.00122457
0.000790267
0.00216472
0.0011427
0.00138749
0.000829892
0.00116589
0.00114508
0.000793921
0.00119785
0.00143436
0.00166882
0.00111625
0.00131406
0.00110169
0.00105531
0.00148228
0.00124023
0.00146843
0.00117281
0.00111035
0.00149522
0.00124932
0.00166775
0.00114569
0.000945156
0.000720402
0.00115351
0.000867599
0.00139848
0.00152995
0.00100641
0.00194225
0.00112232
0.00166815
0.000618035
0.00148109
0.00107411
0.000871441
0.00106667
0.00154952
0.00142594
0.00101466
0.000797605
0.00121951
0.00121607
0.00107158
0.00122978
0.000896773
0.000967313
0.000567759
0.0008931
0.000990295
0.00138227
0.000921273
0.000733214
0.00131118
0.000986494
0.000888537
0.00143749
0.00126795
0.000882247
0.000865936
0.00112585
0.00101879
0.000934481
0.00176196
0.00114706
0.00146528
0.00128801
0.00127156
0.00104635
0.000892245
0.00136559
0.000947657
0.00133351
0.0010168
0.00130453
0.0010344
0.00115421
0.00113282
0.000847046
0.000950311
0.000719003
0.000906948
0.00128573
0.00135066
0.00143403
0.00134438
0.00132461
0.00133836
0.00133783
0.000809147
0.00135574
0.00123899
0.00112264
0.00102958
0.000820123
0.000832104
0.000989645
0.000993006
0.00103818
0.00154661
0.00147425
0.00127106
0.00107353
0.00117448
0.000862561
0.00250821
0.000964605
0.00102403
0.000609077
0.000758424
0.000925279
0.00127808
0.00108807
0.00106765
0.000880154
0.00210349
0.000861081
0.00118135
0.00179845
0.00102581
0.00100322
0.00101425
0.000921829
0.00117946
0.000987821
0.000937145
0.00186718
0.00105686
0.00111664
0.000705891
0.00143676
0.000924859
0.00162652
0.0020407
0.00143231
0.00143914
0.00120633
0.000826349
0.00125414
0.000846711
0.000895742
0.00101903
0.00163674
0.00127564
0.00112259
0.00116895
0.00100232
0.000880084
0.00123232
0.00114093
0.000869853
0.000779003
0.000697988
0.000947286
0.00112376
0.00172321
0.000706122
0.000960006
0.00186343
0.00151784
0.0011682
0.000767735
0.0011678
0.00128308
0.000952878
0.00151522
0.000895811
0.000802169
0.000753786
0.00146904
0.00131654
0.000875
0.00100609
0.00110359
0.00112969
0.000838056
0.000939138
0.00117344
0.00124657
0.000898991
0.000878511
0.00120498
0.00102448
0.00121988
0.00109719
0.000640585
0.00128934
0.000989784
0.00111252
0.00159872
0.00130799
0.00130966
0.00132599
0.0017792
0.00120452
0.00153255
0.00079517
0.000915895
0.00124423
0.00075523
0.00131622
0.000759768
0.000684513
0.00105579
0.000876483
0.000797666
0.000849709
0.00114983
0.00128416
0.000996998
0.00113269
0.00120118
0.00102932
0.00120515
0.00132507
0.000910817
0.00134223
0.000740648
0.00112176
0.00131166
0.00103938
0.00106649
0.000968189
0.00109142
0.00114419
0.00106898
0.000974328
0.00142747
0.00134633
0.00104501
0.000870703
0.00139604
0.00115813
0.000673549
0.000972729
0.000976104
0.000891008
0.000687767
0.000951115
0.00085852
0.00101291
0.00119291
0.00124888
0.000987088
0.000968481
0.000970829
0.000777185
0.000819912
0.0012194
0.000720255
0.00165529
0.000920831
0.00146154
0.0015922
0.00089151
0.000822249
0.00123535
0.000843908
0.00104322
0.000718693
0.000773561
0.000723248
0.00106692
0.00102283
0.00201755
0.000887583
0.000637599
0.000782246
0.00132821
0.00128021
0.00139357
0.000706813
0.000948494
0.00128286
0.00114458
0.00119779
0.0019974
0.000525666
0.00126277
0.00102864
0.000752982
0.00126283
0.00135262
0.00087962
0.00106275
0.00105988
0.00101862
0.00152329
0.00120317
0.000963437
0.000845435
0.0012156
0.00111637
0.000862712
0.00127779
0.00149256
0.00069803
0.00105725
0.00121488
0.000807241
0.00115554
0.0010917
0.00106349
0.000783755
0.00115298
0.00129512
0.000890767
0.00125259
0.00112865
0.00126214
0.0019654
0.00129063
0.000649108
0.00126552
0.00117492
0.00122115
0.00114535
0.00133035
0.000938859
0.00113214
0.00070426
0.00108438
0.00220447
0.000870696
0.000999089
0.00165186
0.00121305
0.000989733
0.00104793
0.00352878
0.000983618
0.00167711
0.00136876
0.0011898
0.000911589
0.00108539
0.000878352
0.00110165
0.00148774
0.000807672
0.000750107
0.000906237
0.00103184
0.000971077
0.00114551
0.000847731
0.00121465
0.00089342
0.00197429
0.00131856
0.00106596
0.00132125
0.000648193
0.000826565
0.00125206
0.000767494
0.001125
0.00108224
0.000926387
0.000881967
0.000814616
0.00190142
0.000976432
0.000938778
0.000855597
0.00157886
0.000719888
0.00117187
0.00121562
0.00128649
0.00109681
0.000981281
0.000825909
0.00102718
0.0009914
0.00180152
0.00133666
0.000782438
0.00121569
0.000903116
0.00114134
0.00111456
0.000932571
0.000966073
0.000891149
0.00113461
0.00127521
0.000898954
0.000754548
0.000977868
0.00117169
0.00104928
0.0012362
0.00114188
0.0018754
0.00180856
0.0013015
0.00114615
0.00113005
0.000785409
0.000998527
0.00122957
0.00122227
0.000698177
0.000681113
0.00139487
0.00134889
0.00138998
0.00178265
0.001351
0.00116551
0.00108398
0.00118136
0.00133373
0.00162246
0.00108694
0.00123697
0.000844275
0.00113446
0.00126986
0.00085153
0.00144184
0.00125514
0.00102158
0.00110868
0.00132294
0.00169593
0.00133159
0.00104747
0.00116166
0.000887308
0.00092105
0.00117188
0.000866958
0.00100768
0.00141322
0.000624567
0.00122073
0.00121116
0.00100987
0.00118227
0.000978416
0.000907544
0.00145752
0.000775017
0.00130796
0.00100485
0.00105574
0.00109138
0.00125085
0.00101495
0.00151716
0.00115116
0.000973876
0.00112846
0.00168701
0.00109533
0.00183216
0.00148286
0.00101539
0.00124227
0.00135631
0.00130736
0.000908275
0.00109033
0.000765928
0.00141103
0.00134099
0.00121593
0.00103706
0.000880136
0.000836398
0.000523983
0.00175474
0.000807987
0.001243
0.00181145
0.00150518
0.00107894
0.000850609
0.00121804
0.0018132
0.00092843
0.00152535
0.00114732
0.00101729
0.00104491
0.00179411
0.00109473
0.000976224
0.00103649
0.00120305
0.000904749
0.000711451
0.00117122
0.000872211
0.00118267
0.00248076
0.000991905
0.00103612
0.00108646
0.000897407
0.000992558
0.00130479
0.000830816
0.00108562
0.00103085
0.00114385
0.000986634
0.00101096
0.001027
0.000870901
0.000945328
0.00122446
0.000736386
0.000966398
0.00127025
0.00120607
0.00334984
0.00118048
0.00106735
0.00116825
0.000920712
0.0015649
0.00148365
0.00129513
0.00116003
0.000954586
0.00162345
0.00141647
0.000805393
0.000907264
0.000990944
0.000979161
0.000874898
0.00122407
0.000982363
0.000762286
0.000967635
0.00124884
0.000762173
0.000758564
0.0012844
0.00111555
0.00144367
0.00136863
0.00121668
0.00156787
0.00100258
0.000812987
0.000922275
0.000818668
0.000826155
0.000888151
0.00104857
0.0011455
0.00118097
0.00119648
0.000985244
0.001171
0.000887372
0.000831
0.00119468
0.00100293
0.00131524
0.000928278
0.00105776
0.000841112
0.000948117
0.000967801
0.00160974
0.000894442
0.00180297
0.00118528
0.000945167
0.000866974
0.00138445
0.00105045
0.000933183
0.00117487
0.00108479
0.00151813
0.000736485
0.00073693
0.000687837
0.00146072
0.00119469
0.00179712
0.00098735
0.00125955
0.00130374
0.00116501
0.00163046
0.00163988
0.000865181
0.00081524
0.00190445
0.00155521
0.0011145
0.000805697
0.000965738
0.000954583
0.000824195
0.00128993
0.00149246
0.00108916
0.00141357
0.000735429
0.00162619
0.00163779
0.0014054
0.00119646
0.000911197
0.000955751
0.00109908
0.00131278
0.00118576
0.00116143
0.000990227
0.000807579
0.00137464
0.000862759
0.00120115
0.0011606
0.000882374
0.00123686
0.00126442
0.00136806
0.000952546
0.00163525
0.00130901
0.00124058
0.000976433
0.00126611
0.00117644
0.000817736
0.00115395
0.000997025
0.000812929
0.00115283
0.000934945
0.00105816
0.00136794
0.000810881
0.00116053
0.00118195
0.00105703
0.00150821
0.00119069
0.00173907
0.00130162
0.00116828
0.00105858
0.00107754
0.00129877
0.00185416
0.00120894
0.00120277
0.00114406
0.00125227
0.00138798
0.00146583
0.000831785
0.00148028
0.00108359
0.000981933
0.000982786
0.00122609
0.00130016
0.00092916
0.00116146
0.00100573
0.00072807
0.0012043
0.00107856
0.00111264
0.00133623
0.00107988
0.000987164
0.000760145
0.00102844
0.00154987
0.000860921
0.00111113
0.00109948
0.00107187
0.00115408
0.00123032
0.00120453
0.000877237
0.000910948
0.00144224
0.00133303
0.00115093
0.000876118
0.000984207
0.000806477
0.00127716
0.00109823
0.00109586
0.000922886
0.00141194
0.00094392
0.000698891
0.000629002
0.00109247
0.00114824
0.00104454
0.00130886
0.00107833
0.00290798
0.00273785
0.000898672
0.00119828
0.0011523
0.00130593
0.000852582
0.00074436
0.000469489
0.00114956
0.000827486
0.000785961
0.00102942
0.000989889
0.00125008
0.000764183
0.00118042
0.00139003
0.00108696
0.000945826
0.00124892
0.00094469
0.000971203
0.000825552
0.00129582
0.00115744
0.000946374
0.000948306
0.00154172
0.001454
0.001214
0.000778994
0.00107308
0.00109738
0.000837561
0.00104176
0.000883596
0.00129634
0.000915174
0.00122628
0.000893653
0.00109618
0.00117487
0.000838576
0.000914178
0.0011359
0.00145095
0.00129069
0.000749188
0.000631161
0.000845847
0.000946121
0.000930397
0.000859608
0.00129034
0.0012512
0.00176492
0.000932968
0.00136877
0.00155013
0.00161817
0.00180861
0.00102586
0.0012099
0.00133695
0.0020375
0.00091182
0.00109334
0.000862952
0.00127136
0.0012814
0.0010757
0.00112136
0.000802693
0.00164325
0.000880254
0.00165425
0.00155488
0.00119893
0.00100679
0.000834781
0.0010803
0.00124412
0.000911158
0.0013825
0.000821855
0.00121994
0.0012709
0.00154957
0.000943902
0.00105334
0.000996692
0.000910594
0.00133013
0.00148536
0.00101355
0.00113138
0.00104032
0.000686059
0.00108913
0.00119675
0.000919158
0.000917621
0.00100553
0.00189133
0.000930151
0.00138156
0.00120555
0.00111928
0.00101703
0.000718537
0.000762753
0.00108952
0.000942346
0.00112921
0.00105349
0.00114461
0.00129573
0.00108149
0.0008292
0.00118352
0.00127327
0.00104157
0.000771715
0.00112082
0.000899268
0.00116029
0.000859446
0.00112051
0.000981634
0.00094005
0.001036
0.00149598
0.00148911
0.00086694
0.000999726
0.000947876
0.00123792
0.00111559
0.000826271
0.000896803
0.00111055
0.00109111
0.00109866
0.000970377
0.000841897
0.0010351
0.00208745
0.000982422
0.00127303
0.0012746
0.0019706
0.000906967
0.00110264
0.00136485
0.00119078
0.00124521
0.00120743
0.000967118
0.000852609
0.000862586
0.00161277
0.000871987
0.00104169
0.00109983
0.00114392
0.000594205
0.00162979
0.000330706
0.000782697
0.00160734
0.000809117
0.00128783
0.00111613
0.000879118
0.000915008
0.000928499
0.00106251
0.00125324
0.00068105
0.00121334
0.0014356
0.00163673
0.000936198
0.00180494
0.000951702
0.00102952
0.000946383
0.0012059
0.000902507
0.000839838
0.00109344
0.000824983
0.000882318
0.00143419
0.0008418
0.00077654
0.000813154
0.00116138
0.000690996
0.0014711
0.00102541
0.000910662
0.00114029
0.00147396
0.00166243
0.000767516
0.00107056
0.00112165
0.00122146
0.000861929
0.00112632
0.0007163
0.00163393
0.000986529
0.000692318
0.00147057
0.00129969
0.000990501
0.00115137
0.000771027
0.000916395
0.000933701
0.00127177
0.0011541
0.00116486
0.000675105
0.000715984
0.00154908
0.00150382
0.000805121
0.000739206
0.000764347
0.000801839
0.00111169
0.00106944
0.00200088
0.000901926
0.00079735
0.000706584
0.00170128
0.000709395
0.00124053
0.00116354
0.000644174
0.00119145
0.000826737
0.00123614
0.00175454
0.000785716
0.00145387
0.00113224
0.000972
0.00092007
0.00101098
0.000987738
0.000935796
0.000899415
0.00110446
0.00103465
0.000677324
0.00116596
0.00105669
0.000987532
0.00105525
0.0011685
0.000884021
0.000790103
0.000989549
0.00163084
0.00114893
0.000993904
0.000928596
0.00122255
0.000965036
0.00120903
0.000881793
0.00116656
0.000999347
0.00084157
0.000805698
0.00124193
0.000906102
0.00127298
0.000734608
0.000834153
0.000765721
0.00106778
0.000849476
0.00121505
0.00123945
0.000935675
0.00126128
0.000731517
0.00112204
0.000607254
0.00149799
0.000938586
0.00095781
0.00108671
0.00113926
0.0011891
0.00106208
0.000849027
0.000953653
0.000684218
0.00119662
0.00121033
0.00117272
0.00114949
0.00104496
0.00134472
0.00127454
0.00112105
0.00103114
0.00101899
0.000939742
0.00105818
0.00140312
0.0010581
0.00119756
0.00124249
0.00105447
0.00105451
0.000957832
0.000873523
0.000941906
0.00153403
0.00103586
0.000638225
0.000667498
0.000947503
0.00109672
0.00141629
0.0011025
0.00105835
0.00135929
0.00127676
0.00142591
0.00127364
0.000745662
0.00100919
0.00106485
0.000953827
0.000741799
0.00119153
0.000928785
0.000956993
0.001121
0.00130201
0.000841368
0.000668413
0.00104486
0.00107431
0.0014832
0.00128938
0.00126961
0.000771729
0.00113538
0.00142774
0.000839686
0.001517
0.00125253
0.00118471
0.000848808
0.0011907
0.00128273
0.00115304
0.000892841
0.00178347
0.00129598
0.00127857
0.0025344
0.00100575
0.00163964
0.00126615
0.000701266
0.0011529
0.00105214
0.00134704
0.00240727
0.000849207
0.00160509
0.000765228
0.00168323
0.00105584
0.000800805
0.00101946
0.00205642
0.00192096
0.00106633
0.00102869
0.00146053
0.00140502
0.00101657
0.00123578
0.00118277
0.00141987
0.000985703
0.000774645
0.000775725
0.00126545
0.00134948
0.000912804
0.00124583
0.000858892
0.00100311
0.00102894
0.00238135
0.00238205
0.000898192
0.00165577
0.00107262
0.00108141
0.000923634
0.00123228
0.00105246
0.00119122
0.00104329
0.00108211
0.00153635
0.000925527
0.000855771
0.00158839
0.00110441
0.000980782
0.00158121
0.00141844
0.000767478
0.00138154
0.00105165
0.00132627
0.000967637
0.00138892
0.00123369
0.00129906
0.00124371
0.00139469
0.00100485
0.000917254
0.00088241
0.00122382
0.00110103
0.000684547
0.000837216
0.00135903
0.000840563
0.000934197
0.000750564
0.00145002
0.00131145
0.00086084
0.000934022
0.00134837
0.000758262
0.0015355
0.00112966
0.00073112
0.00138375
0.000963715
0.00113616
0.000816683
0.000930242
0.00123789
0.00169623
0.00116836
0.00118928
0.000749186
0.00126448
0.00117637
0.00116802
0.000643336
0.000930326
0.00199263
0.00153519
0.00201878
0.0011577
0.00115475
0.000704128
0.00107134
0.00111917
0.001073
0.000915282
0.000583448
0.000978695
0.00106843
0.00176584
0.00114325
0.00089048
0.00119654
0.000601077
0.00116673
0.00107291
0.00112365
0.00153558
0.00117726
0.0013209
0.00118937
0.000863156
0.00105746
0.00122219
0.00109166
0.00176803
0.00105545
0.00101882
0.000993757
0.00131429
0.00124661
0.000987013
0.000792415
0.000802737
0.000897339
0.000984382
0.00123565
0.00119608
0.000976343
0.000912467
0.000852909
0.000966807
0.000696693
0.00104055
0.000961924
0.000941362
0.0015042
0.000780694
0.000738155
0.00123313
0.00109756
0.00111304
0.000829401
0.00102801
0.00141327
0.000764027
0.00113011
0.000939176
0.000862441
0.0013261
0.00112788
0.00136282
0.00143248
0.00112935
0.00126752
0.00126509
0.00233589
0.00141331
0.000695751
0.00128456
0.000809571
0.000915766
0.00129457
0.00127345
0.00141247
0.00189253
0.000851082
0.00087194
0.00105468
0.000950367
0.000994791
0.0010953
0.000962921
0.000733271
0.00125101
0.000964598
0.000858991
0.000976859
0.00093556
0.000978817
0.000985361
0.000833109
0.000934515
0.00119664
0.00088999
0.00103565
0.00136998
0.00084461
0.000948132
0.00108351
0.00101021
0.000800868
0.000755722
0.000800227
0.00107632
0.00109997
0.000966529
0.00100332
0.000832834
0.00109197
0.00132454
0.000825575
0.00104698
0.000924743
0.00114416
0.000939417
0.00107342
0.0012254
0.00119561
0.00107117
0.001233
0.000744187
0.00146275
0.00161366
0.00169528
0.000981505
0.000753449
0.000928829
0.00104562
0.0014984
0.000661077
0.00123597
0.00159778
0.00123321
0.0012406
0.00102928
0.00113475
0.000757888
0.000940194
0.000647879
0.00112188
0.000966007
0.000853307
0.00078631
0.00130266
0.00142006
0.000697448
0.00136534
0.00119839
0.000858676
0.00125768
0.00150845
0.00104486
0.00131905
0.00105452
0.000871712
0.00100282
0.000807958
0.00121647
0.00122659
0.00180375
0.00141037
0.00081663
0.00130156
0.00145403
0.00116193
0.00115759
0.00154092
0.00143517
0.00124344
0.00130951
0.00097239
0.000873222
0.000939892
0.00068651
0.000933446
0.00102123
0.000651594
0.00152354
0.00106283
0.00104978
0.0008352
0.000829277
0.00193186
0.00114618
0.001136
0.00104017
0.00156774
0.00181413
0.0010263
0.000906364
0.000662749
0.000834428
0.000844367
0.00116483
0.00116411
0.00108607
0.000882292
0.00102345
0.00135245
0.00135433
0.00129389
0.00141294
0.000998968
0.000750715
0.000866186
0.00120103
0.00108216
0.00197735
0.000806139
0.00163445
0.00111868
0.000745021
0.00163602
0.00108918
0.00105155
0.00105175
0.001279
0.00113393
0.00124586
0.00160649
0.00132207
0.00159156
0.00125452
0.00131313
0.00173679
0.00074716
0.00120876
0.0010813
0.000860707
0.00100258
0.000865345
0.00085752
0.00155878
0.0011972
0.000755225
0.000739655
0.00139825
0.00109779
0.0012615
0.000856666
0.00123626
0.000968802
0.000933952
0.000690324
0.00134643
0.00114867
0.00105953
0.0010064
0.00152917
0.00052841
0.00147341
0.00141473
0.0013586
0.00124491
0.00153482
0.00113317
0.000932101
0.00134545
0.000975752
0.00161107
0.000823367
0.00095982
0.000940981
0.000970829
0.00158914
0.00110966
0.00144394
0.00106345
0.00114973
0.00112243
0.00111315
0.00104479
0.00116056
0.00112789
0.00104231
0.00112925
0.000874996
0.00114033
0.00162215
0.000956403
0.00111227
0.00126991
0.00122068
0.000937051
0.00160468
0.00110485
0.000770673
0.000642311
0.00148558
0.00106236
0.00106939
0.00119492
0.00133893
0.00122611
0.00090004
0.00101159
0.000835356
0.000921674
0.00129924
0.000844083
0.00111224
0.00116423
0.000933596
0.000956565
0.00102443
0.00124034
0.000903935
0.00114421
0.000979335
0.0012635
0.0016078
0.0010175
0.00112258
0.000928917
0.00128496
0.00160031
0.00126818
0.00128102
0.00125799
0.00121283
0.000908457
0.000953003
0.000785439
0.00134577
0.00122879
0.000779974
0.00121606
0.00105736
0.00121579
0.000763178
0.000809063
0.00104444
0.0010665
0.00113462
0.00128207
0.000936894
0.00149298
0.00113368
0.00117225
0.00123036
0.000980644
0.000920638
0.000933097
0.00145786
0.000562462
0.0016192
0.000836612
0.00103
0.00107917
0.00148422
0.00112643
0.00078583
0.0010098
0.00136334
0.0013808
0.00125586
0.00121869
0.00175688
0.00121994
0.00131343
0.000601189
0.000935024
0.0023019
0.000879863
0.00159831
0.000861339
0.00127499
0.00107541
0.000977053
0.00128364
0.00136072
0.00154208
0.00118224
0.00100441
0.00193886
0.000963034
0.00169458
0.00179464
0.000930907
0.00165434
0.00114717
0.00138568
0.00164743
0.00135557
0.00136615
0.00121956
0.000986691
0.000879881
0.00134313
0.000964402
0.000999328
0.00149871
0.00130879
0.00131499
0.00141475
0.00135665
0.00146541
0.00136422
0.00108754
0.00159364
0.00171498
0.00150901
0.00145101
0.00125398
0.00149321
0.000874635
0.0016413
0.00104279
0.00100993
0.00100497
0.00157278
0.00124926
0.00153437
0.00105076
0.0013252
0.00106134
0.000904545
0.000902033
0.00138251
0.00129169
0.00105095
0.00154634
0.00137277
0.00120737
0.000988711
0.00117101
0.000886993
0.00102
0.00233574
0.00150201
0.0012888
0.000832736
0.0013526
0.00109103
0.00130912
0.00129409
0.00136971
0.00127021
0.00140512
0.00147427
0.00139375
0.000542059
0.00141357
0.0011188
0.000839812
0.00133991
0.00181312
0.00134209
0.00101178
0.000990389
0.000817041
0.000926154
0.00133625
0.00150235
0.00088761
0.001276
0.00139249
0.00129117
0.00079831
0.00135954
0.00120984
0.00166135
0.000790441
0.00109692
0.00111511
0.00148432
0.00115274
0.00144473
0.00167021
0.00147805
0.00151433
0.00129915
0.00112445
0.0011026
0.00124707
0.00106676
0.000976113
0.00110513
0.00125837
0.0016128
0.00104919
0.000602697
0.00153358
0.00103628
0.00116165
0.00106541
0.00111029
0.00102109
0.00118474
0.0011154
0.00115821
0.00126699
0.00106438
0.000947228
0.00166848
0.000869568
0.00104421
0.00137675
0.00138415
0.00153899
0.00121999
0.00119153
0.00110573
0.00119441
0.00110519
0.000656072
0.000803024
0.000778988
0.00104556
0.00122507
0.00132911
0.000881924
0.00140942
0.00144556
0.000726457
0.00135633
0.00142692
0.00114086
0.00125775
0.00144011
0.00139931
0.00126269
0.00126115
0.00153502
0.00143267
0.000967121
0.000939279
0.000779821
0.00135479
0.00127548
0.00132255
0.00114338
0.00205417
0.00105026
0.00109264
0.000920517
0.000705824
0.00176415
0.00135759
0.000827467
0.00154544
0.00156875
0.00127976
0.000943697
0.000917938
0.0011162
0.00116377
0.000952638
0.00284465
0.000926655
0.000821279
0.00129792
0.00177262
0.00097397
0.00113465
0.00107576
0.000748634
0.000956375
0.000748276
0.000729359
0.0008899
0.000847554
0.000868186
0.00172778
0.00093032
0.0013848
0.000693236
0.00118038
0.000865028
0.00121128
0.000938583
0.000855742
0.00174245
0.000887755
0.00102244
0.00165147
0.00110504
0.00126668
0.00086639
0.000868869
0.000837109
0.00109529
0.00146645
0.00119126
0.00120713
0.00126603
0.00152976
0.00140948
0.00118658
0.00110691
0.00100545
0.000930487
0.00122406
0.00140945
0.00110582
0.000805892
0.000833557
0.000829633
0.00162656
0.000787907
0.00191097
0.00167465
0.0013388
0.00119517
0.00128694
0.00136391
0.00119314
0.00177822
0.00136227
0.000903909
0.00119588
0.00100678
0.000951176
0.00121207
0.000979429
0.00101423
0.00105943
0.000864529
0.00150306
0.0012847
0.00182796
0.000962327
0.00145797
0.000895871
0.00111567
0.00108839
0.000736733
0.00085747
0.00103172
0.000831439
0.00111613
0.000618676
0.000978348
0.0013867
0.00124749
0.000853622
0.00131675
0.00132192
0.00135061
0.00155206
0.00116766
0.000994082
0.000810081
0.000709585
0.000992125
0.00130937
0.000871673
0.00151573
0.0010727
0.0010416
0.00142935
0.000836004
0.000901157
0.000898525
0.00107102
0.00178258
0.001166
0.000976452
0.000627386
0.00148015
0.00146303
0.0015776
0.000773562
0.00164878
0.000920698
0.00130067
0.00137791
0.00114599
0.00122181
0.00141583
0.00119587
0.001318
0.0010987
0.00203631
0.00131598
0.00144033
0.000986235
0.00112955
0.00112015
0.00107564
0.00120879
0.00213272
0.00112841
0.00137169
0.000976361
0.000939199
0.000994543
0.001042
0.00108626
0.00124425
0.00124948
0.00172445
0.00103805
0.00105531
0.000772196
0.00178305
0.00102801
0.00109865
0.00123442
0.00104646
0.000760478
0.0011007
0.001915
0.000794075
0.000962247
0.000988154
0.00109047
0.00108818
0.00102399
0.000839285
0.00177007
0.00131456
0.000986784
0.00113431
0.00139548
0.00148556
0.00182275
0.000953001
0.00107805
0.000990842
0.000980967
0.00108496
0.00120456
0.00122425
0.00125869
0.00122356
0.00100523
0.000958219
0.00107827
0.00109888
0.00071878
0.00132353
0.00161111
0.00172929
0.00113041
0.00117274
0.00105
0.00190093
0.00108041
0.00132197
0.000777687
0.000949849
0.000836195
0.000923068
0.00132942
0.00130575
0.000993391
0.00119912
0.00106621
0.0010138
0.00240371
0.00123083
0.000726448
0.00117506
0.00103796
0.0013153
0.00106514
0.00114408
0.00200384
0.000964151
0.00100562
0.00111444
0.000921486
0.00113039
0.00248566
0.000922097
0.00101511
0.000850654
0.000696963
0.00111672
0.00111472
0.00102168
0.000966895
0.00120314
0.00121685
0.00103907
0.00120668
0.00137548
0.00110472
0.00141897
0.00125053
0.00177562
0.0018905
0.00111049
0.000965869
0.000813125
0.00099472
0.00120207
0.00113337
0.00128254
0.00119655
0.000930575
0.0012603
0.00132376
0.00179804
0.00156704
0.000996584
0.000642908
0.00126719
0.00106718
0.00106074
0.00104871
0.00173182
0.00138735
0.00112558
0.00123331
0.00110858
0.00119804
0.00118753
0.000902732
0.00153363
0.00107674
0.00110234
0.00155032
0.00154754
0.0011251
0.00117928
0.00100125
0.00102868
0.00151147
0.00152142
0.00147529
0.00113668
0.000848607
0.00091243
0.00165584
0.000972003
0.00125578
0.000817614
0.000837894
0.00119081
0.00174045
0.00142817
0.00155964
0.00106798
0.0013139
0.00142257
0.00112181
0.000774636
0.000843835
0.00088063
0.00122149
0.000860228
0.00108554
0.00131942
0.00176764
0.00135022
0.00180147
0.00129418
0.00146438
0.000885856
0.00110939
0.000997669
0.00129745
0.000757659
0.00132149
0.00171712
0.00101529
0.0012045
0.00178472
0.00117427
0.00130865
0.00118877
0.00122232
0.000983847
0.00109518
0.00140856
0.00205506
0.00081901
0.000928183
0.00135069
0.001386
0.00124966
0.00106606
0.00135572
0.0012813
0.00145578
0.00120352
0.00153638
0.00140836
0.0013039
0.000804295
0.00107699
0.000875084
0.000969979
0.00160923
0.00171803
0.00104402
0.00115879
0.000967485
0.00119992
0.000941833
0.00138146
0.00184899
0.000893296
0.000904518
0.00164723
0.00109113
0.00104424
0.00148632
0.00134603
0.0011364
0.000997374
0.00155546
0.00104154
0.0011817
0.00148272
0.000955494
0.00107687
0.00115947
0.00135306
0.000961751
0.00107908
0.00130491
0.000989535
0.000900415
0.00177802
0.00155518
0.000905891
0.000925399
0.0041433
0.0082554
0.00569565
0.00767744
0.00755671
0.00920454
0.00653132
0.00798723
0.00945927
0.00964846
0.0113702
0.0107027
0.00312431
0.00406166
0.00766145
0.00761281
0.00415025
0.00719174
0.00903609
0.00594155
0.00400768
0.00760062
0.00661763
0.00815045
0.0070169
0.00706133
0.00573636
0.00199781
0.00715813
0.00732552
0.0107929
0.00294911
0.00546665
0.00690464
0.00486894
0.00893431
0.00370236
0.00791996
0.00538155
0.00959743
0.00388628
0.00503333
0.00202537
0.00626444
0.00570706
0.00814011
0.00445149
0.00591398
0.00540979
0.00696004
0.00953482
0.0082936
0.00697072
0.00361179
0.00897431
0.00528924
0.00251216
0.00847169
0.00854356
0.00480852
0.00954211
0.00294634
0.00769083
0.00364714
0.00462356
0.00403552
0.00466672
0.0168371
0.00897513
0.00832962
0.00646084
0.00888137
0.00534354
0.00534072
0.00958154
0.00543963
0.00891261
0.00417297
0.003992
0.00612513
0.00398034
0.00432855
0.00407331
0.00811818
0.00596542
0.00866374
0.00911722
0.00701314
0.00606964
0.00291945
0.0103896
0.004828
0.0094709
0.00232417
0.00294416
0.00828921
0.0103016
0.012792
0.00347014
0.00338592
0.00470181
0.00592623
0.00878051
0.00787412
0.00341948
0.00515195
0.0116959
0.00780422
0.00893631
0.00722865
0.00608755
0.0091591
0.00476807
0.0081628
0.00904258
0.0094467
0.00526743
0.00871786
0.00467588
0.00781255
0.00908988
0.00640182
0.0089839
0.0089645
0.0081788
0.00943941
0.00770085
0.0101879
0.00663603
0.00666884
0.00502846
0.00776678
0.00485653
0.00564182
0.011386
0.00435222
0.00942457
0.00644258
0.00951614
0.00393651
0.00842876
0.00720296
0.00331631
0.00545984
0.0129928
0.00824639
0.00470506
0.0049726
0.00614518
0.00670047
0.00773167
0.00749907
0.00378411
0.00453692
0.00302493
0.00509565
0.006378
0.00761767
0.00471037
0.00334843
0.00440887
0.00500816
0.00498313
0.00757432
0.00957394
0.00568097
0.00542472
0.00808027
0.00554528
0.00291286
0.0122186
0.00895843
0.010481
0.00772332
0.0108721
0.00705218
0.00724837
0.00925003
0.00470702
0.00601097
0.0044273
0.00862584
0.00737143
0.0082421
0.00701505
0.00574902
0.00678172
0.00586653
0.00524652
0.00992821
0.0101557
0.00826799
0.00815212
0.0101708
0.0085194
0.00892648
0.00396332
0.00942601
0.0061375
0.00747813
0.0076662
0.00436066
0.00401586
0.00388723
0.00472924
0.00800714
0.00826106
0.00932073
0.00928762
0.00794546
0.00698965
0.00635573
0.0189857
0.00354139
0.00614199
0.00408863
0.00168803
0.00516254
0.00874242
0.00627583
0.00556956
0.00561193
0.00969494
0.00660752
0.00743858
0.00943302
0.00600473
0.0068694
0.00683347
0.00575648
0.00408272
0.00336674
0.0040267
0.0114979
0.00443958
0.00777199
0.00501783
0.0101648
0.00516374
0.00829374
0.0134093
0.0102819
0.0112496
0.00889653
0.00379072
0.00987639
0.00692776
0.00561242
0.00693035
0.011337
0.00820848
0.00650605
0.00443839
0.00706877
0.00478418
0.00479318
0.00384073
0.00349255
0.00292863
0.00246858
0.00458113
0.00588165
0.0105682
0.00526364
0.00629158
0.00751214
0.00832973
0.00539361
0.00335615
0.00931299
0.0125148
0.00600312
0.0123418
0.00564681
0.00507388
0.00351936
0.00960132
0.00910928
0.00560271
0.00367911
0.00605423
0.00827683
0.00395704
0.00439016
0.00580435
0.00538142
0.00496205
0.0063271
0.00689696
0.00692413
0.00803608
0.00755241
0.00139074
0.00923343
0.00502749
0.00614034
0.0050311
0.00598647
0.00878037
0.00526656
0.0124335
0.00795808
0.00889828
0.00525247
0.00362361
0.00664516
0.00351482
0.00996112
0.00233198
0.00473318
0.00719611
0.00527038
0.00318087
0.00534565
0.00678989
0.00813669
0.00541404
0.0074507
0.00821901
0.00678407
0.00698361
0.00773508
0.00653623
0.00621629
0.00388257
0.00524948
0.00826486
0.00559738
0.0097999
0.00718119
0.00664786
0.00741599
0.00497238
0.00387893
0.00890115
0.00568972
0.00629274
0.00595502
0.00923371
0.0075908
0.00464344
0.00724637
0.00726453
0.00411282
0.00485626
0.00468679
0.00467606
0.00572463
0.00521362
0.00888539
0.00812926
0.00303694
0.00480874
0.00592432
0.00543737
0.00533569
0.00346313
0.00813803
0.00669854
0.00978661
0.0115629
0.00513524
0.00405623
0.00512491
0.00567129
0.00796704
0.00312828
0.00368929
0.00417815
0.00502722
0.00352553
0.00981511
0.00658278
0.00340949
0.00398691
0.00884488
0.00823276
0.00775646
0.0040354
0.00270825
0.0085635
0.00918881
0.00804372
0.0125218
0.00335188
0.0071636
0.00488323
0.00304113
0.00480922