/*--------------------------------*- C++ -*----------------------------------*\
| =========                 |                                                 |
| \\      /  F ield         | OpenFOAM: The Open Source CFD Toolbox           |
|  \\    /   O peration     | Version:  2212                                  |
|   \\  /    A nd           | Website:  www.openfoam.com                      |
|    \\/     M anipulation  |                                                 |
\*---------------------------------------------------------------------------*/
FoamFile
{
    version     2.0;
    format      ascii;
    arch        "LSB;label=32;scalar=64";
    class       volScalarField;
    location    "10";
    object      p;
}
// * * * * * * * * * * * * * * * * * * * * * * * * * * * * * * * * * * * * * //

dimensions      [0 2 -2 0 0 0 0];

internalField   nonuniform List<scalar> 
77525
(
-1052.53
-841.496
-991.051
-972.288
-980.418
-959.472
-548.002
-1008.42
-690.477
-956.353
-686.526
-952.466
-833.203
-697.329
-861.807
-343.402
-821.621
-932.777
-959.216
-550.422
-975.825
-721.371
-389.413
-938.955
-862.742
-616.472
-809.975
-912.331
-938.137
-950.189
-1006.33
-1041.09
-443.956
-839.962
-1017.61
-591.334
-1040.81
-1066.44
-352.572
-998.128
-1026.11
-640.858
-911.512
-421.347
-436.45
-931.528
-609.114
-511.432
-539.041
-904.172
-1001.37
-1039.63
-933.757
-1039.36
-767.414
-1019.12
-900.869
-992.995
-975.881
-1000.97
-672.579
-884.111
-648.455
-907.816
-1027.1
-1028.92
-466.854
-959.214
-961.6
-966.295
-838.14
-891.093
-826.77
-558.751
-726.986
-577.377
-902.047
-1029.62
-474.954
-993.138
-875.966
-1031.19
-883.063
-873.874
-835.785
-1010.34
-971.467
-836.728
-830.187
-1004.06
-1037.65
-1042.46
-1044.95
-917.08
-869.703
-1026.19
-1013.38
-794.906
-520.221
-924.035
-888.48
-906.201
-896.91
-956.882
-1050.75
-919.366
-1014.37
-962.546
-1025.14
-343.072
-501.046
-984.378
-841.706
-1046.79
-808.194
-1017.14
-811.477
-1019.17
-494.567
-413.398
-862.45
-800.252
-769.5
-985.141
-954.366
-824.291
-824.382
-1025.04
-955.246
-983.614
-879.82
-989.287
-911.491
-1039.21
-964.498
-808.527
-1019.24
-845.223
-1022.57
-862.261
-1014.41
-380.088
-886.231
-866.569
-948.58
-973.202
-1047.49
-551.694
-1011.39
-658.55
-856.283
-1014.2
-862.011
-976.724
-907.663
-523
-912.421
-921.787
-966.127
-973.179
-796.871
-968.737
-947.152
-1016.59
-927.485
-986.325
-969.727
-874.345
-1064.98
-1010.84
-1004.65
-800.925
-992.462
-812.572
-758.689
-870.669
-975.749
-922.082
-1072.65
-1000.39
-789.565
-808.234
-986.97
-670.409
-993.229
-853.021
-842.484
-839.027
-831.553
-971.613
-917.103
-1050.6
-752.934
-897.785
-745.442
-867.542
-814.4
-822.817
-505.461
-846.337
-874.476
-720.044
-861.305
-901.346
-923.264
-873.576
-992.787
-1003.99
-990.759
-900.186
-984.186
-954.924
-957.609
-1124.26
-921.194
-868.76
-923.193
-1014.09
-998.046
-853.897
-870.045
-988.988
-987.712
-900.926
-1071.69
-969.065
-768.295
-944.219
-992.216
-813.869
-707.171
-684.793
-1058.18
-999.191
-481.725
-897.648
-876.615
-963.296
-457.982
-829.894
-999.233
-728.952
-713.809
-934.52
-515.9
-952.157
-976.432
-366.336
-1074.24
-980.938
-753.318
-856.651
-922.216
-628.695
-452.221
-1009.71
-1111.65
-799.679
-866.776
-912.458
-1061.6
-999.293
-346.762
-860.952
-599.781
-355.493
-877.795
-926.867
-868.05
-956.749
-587.591
-613.82
-707.212
-961.272
-951.025
-952.938
-839.926
-884.676
-889.971
-687.47
-456.415
-861.015
-535.858
-865.067
-758.334
-832.042
-1033.15
-980.379
-914.565
-865.16
-984.812
-720.948
-925.455
-738.367
-1091.62
-797.263
-343.139
-976.827
-886.5
-779.584
-973.818
-916.469
-993.236
-880.77
-888.807
-948.857
-1082.84
-908.526
-868.212
-867.892
-1013.56
-892.149
-1052.5
-505.587
-857.732
-837.692
-1021
-1018.3
-471.026
-421.795
-876.165
-894.02
-902.287
-882.386
-825.134
-884.243
-1055.3
-1016.69
-873.994
-960.835
-380.718
-878.391
-957.397
-1083.69
-903.103
-1016.75
-861.608
-961.176
-857.319
-977.934
-868.221
-987.432
-893.69
-1036.88
-1074.92
-1082.42
-840.414
-855.873
-340.129
-898.103
-867.222
-898.869
-731.898
-479.44
-1040.14
-1087.46
-963.851
-686.045
-1032.36
-972.576
-874.006
-979.218
-1069.66
-462.061
-863.488
-904.532
-969.434
-498.147
-506.013
-555.212
-1064.03
-675.2
-822.163
-864.083
-1021.48
-748.533
-767.77
-896.221
-819.429
-824.263
-713.002
-616.196
-817.046
-979.247
-862.23
-898.377
-894.229
-903.324
-752.714
-724.665
-816.67
-1089.87
-862.37
-443.723
-706.691
-714.119
-1078.21
-887.547
-892.118
-848.843
-329.116
-961.252
-810.365
-483.736
-1070.88
-913.493
-888.15
-858.064
-857.108
-824.898
-991.15
-896.181
-822.152
-409.045
-799.066
-330.754
-609.461
-943.969
-936.411
-849.285
-812.72
-801.33
-924.677
-545.426
-971.176
-913.745
-827.47
-865.102
-981.291
-954.188
-1102.2
-890.871
-816.401
-352.733
-896.373
-749.81
-949.735
-798.557
-871.224
-856.672
-925.773
-1122.87
-1018.34
-1020.32
-709.388
-729.68
-908.825
-924.444
-996.243
-386.447
-1104.94
-855.497
-822.471
-863.567
-937.653
-801.441
-278.573
-869.014
-921.628
-903.724
-836.595
-672.269
-886.555
-1038.67
-515.86
-1006.19
-941.683
-948.333
-1028.8
-467.046
-479.071
-553.533
-1023.14
-901.506
-972.526
-644.811
-903.441
-1051.56
-810.689
-820.745
-444.413
-437.263
-1009.83
-863.331
-826.325
-876.037
-1004.93
-350.797
-431.174
-976.949
-988.541
-1092.76
-892.183
-315.133
-862.745
-494.824
-1049.08
-723.742
-547.733
-756.713
-781.262
-955.138
-941.763
-1002.68
-713.317
-714.601
-920.554
-891.676
-981.633
-987.419
-881.844
-900.207
-973.608
-972.812
-880.814
-961.764
-971.264
-874.111
-455.824
-781.867
-1038.11
-1031.15
-1047.18
-822.752
-1054.46
-1098.97
-500.508
-547.13
-667.936
-714.193
-789.528
-1081.16
-977.83
-847.226
-853.933
-939.621
-978.104
-1068.68
-897.389
-743.239
-914.641
-628.113
-303.591
-857.131
-858.141
-908.239
-936.199
-1029.77
-768.625
-757.17
-858.915
-921.111
-797.129
-448.215
-840.418
-840.886
-864.459
-855.631
-532.014
-691.875
-1056.02
-1039.7
-988.051
-1073.57
-941.048
-744.631
-940.518
-497.469
-507.521
-540.613
-558.24
-679.334
-920.78
-1033.19
-697.929
-657.288
-802.566
-811.995
-883.647
-864.874
-959.254
-559.194
-774.752
-829.584
-635.277
-864.798
-668.124
-1093.04
-1014.96
-1081.88
-988.179
-1092.07
-1090.53
-812.122
-861.855
-832.088
-1011.22
-886.929
-961.77
-613.195
-878.337
-1016.36
-843.39
-692.906
-947.274
-888.513
-559.407
-1015.56
-886.97
-855.388
-745.698
-1026.95
-646.539
-700.414
-843.699
-902.881
-1120.99
-1086.02
-1069.08
-961.472
-777.698
-820.067
-866.736
-845.115
-882.606
-954.272
-1013.53
-722.056
-841.757
-956.446
-948.071
-957.653
-808.681
-841.571
-791.406
-977.628
-719.508
-473.439
-964.594
-1074.85
-904.052
-925.553
-982.877
-926.375
-914.122
-932.521
-510.885
-905.713
-899.869
-775.314
-714.461
-836.098
-848.125
-1020.83
-960.53
-939.78
-984.787
-1085.29
-984.568
-949.272
-949.859
-704.117
-705.364
-829.98
-823.737
-929.613
-951.998
-656.886
-796.806
-702.324
-882.156
-995.201
-924.182
-894.912
-496.602
-758.709
-1031.82
-842.371
-983.961
-877.096
-857.596
-934.463
-1097.51
-706.12
-861.257
-936.081
-962.15
-762.788
-817.267
-906.206
-957.239
-862.701
-986.534
-895.804
-980.741
-615.426
-925.826
-1005.79
-1004.57
-845.052
-842.671
-955.162
-414.19
-1006.87
-1023.26
-361.64
-1095.88
-866.65
-469.756
-963.758
-855.501
-796.626
-864.84
-981.368
-1016.82
-802.02
-807.588
-650.145
-820.074
-780.084
-1087.18
-893.251
-873.235
-694.63
-877.125
-954.34
-1085.17
-893.839
-1037.02
-847.241
-843.131
-1061.85
-1045.06
-998.15
-980.467
-978.302
-772.419
-793.273
-884.893
-892.045
-864.517
-952.771
-996.052
-472.251
-1046.46
-987.734
-900.407
-1065.55
-778.568
-996.068
-762.119
-984.54
-837.758
-1009.72
-998.431
-743.203
-984.519
-614.631
-664.478
-1055.13
-1085.93
-1024.99
-984.051
-306.096
-671.116
-1077.53
-796.803
-783.741
-836.498
-1082.43
-892.813
-1012.51
-911.013
-911.49
-756.733
-1027.45
-1116.09
-866.31
-876.396
-797.683
-946.773
-838.036
-457.637
-942.23
-924.445
-994.467
-989.28
-979.008
-1055.51
-965.797
-1092.43
-1059.86
-871.244
-835.979
-889.431
-895.858
-447.499
-410.892
-983.026
-878.335
-604.722
-648.765
-867.294
-1038.95
-474.129
-645.027
-598.798
-1102.69
-1080.52
-1086.53
-875.469
-875.778
-1104.99
-1055.94
-437.692
-891.805
-846.243
-943.463
-937.361
-1068.77
-500.132
-958.665
-537.118
-587.724
-816.411
-908.189
-847.21
-385.346
-1025.02
-629.228
-571.492
-1041.83
-973.1
-633.192
-788.196
-896.691
-928.84
-626.874
-944.11
-1069.82
-940.753
-915.127
-922.872
-843.319
-847.303
-739.395
-773.514
-1014.64
-828.889
-1092.66
-1069.53
-1049.69
-311.212
-1000.44
-742.173
-980.054
-952.503
-886.66
-1086.19
-1091.67
-982.272
-981.321
-488.444
-753.435
-673.027
-967.674
-1012.95
-914.022
-439.149
-447.669
-924.46
-593.441
-624.129
-981.006
-952.891
-1001.54
-980.118
-999.818
-980.328
-848.592
-799.161
-276.972
-978.471
-864.014
-858.978
-1019.29
-775.918
-858.096
-765.692
-792.771
-931.227
-985.434
-832.555
-1003.35
-1006.37
-813.157
-920.451
-936.318
-979.406
-973.306
-951.049
-601.372
-1011.26
-854.65
-818.663
-716.589
-950.618
-1109.51
-1084.53
-894.993
-774.837
-992.741
-998.732
-1009.57
-968.542
-887.168
-838.261
-704.697
-550.524
-529.738
-1002.9
-935.217
-856.287
-434.62
-864.924
-573.394
-572.98
-903.692
-895.785
-404.28
-1018.66
-717.061
-1083
-1066.26
-672.931
-880.407
-483.547
-1024.48
-402.78
-659.369
-911.42
-717.478
-933.33
-481.518
-580.201
-394.722
-1011.92
-917.488
-1082.81
-723.741
-1009.74
-456.436
-1020.82
-573.327
-361.697
-815.627
-868.034
-945.675
-933.674
-686.051
-813.727
-860.6
-1050.64
-947.165
-1011.34
-938.026
-741.502
-925.607
-973.348
-927.662
-751.64
-730.51
-704.74
-898.787
-768.76
-744.456
-987.668
-848.78
-955.963
-961.882
-1037.3
-1035.64
-1055.99
-864.22
-981.628
-905.861
-867.144
-764.53
-412.134
-767.75
-912.048
-904.323
-1025.22
-979.362
-967.033
-758.842
-935.316
-880.768
-1006.16
-842.615
-970.999
-879.349
-889.125
-470.109
-456.334
-874.152
-962.759
-864.455
-882.674
-567.702
-1024.32
-660.635
-972.932
-970.864
-942.739
-1090.39
-907.369
-838.031
-595.18
-546.419
-789.01
-699.129
-333.821
-954.351
-941.579
-937.102
-500.872
-355.741
-390.558
-1083.48
-988.208
-1051.45
-784.915
-1013.02
-944.497
-1047.68
-777.301
-986.496
-436.765
-1056.9
-813.163
-716.093
-852.607
-941.441
-983.404
-984.908
-992.732
-981.166
-973.202
-1078.26
-1083.56
-758.661
-1095.44
-959.275
-1032.37
-965.401
-962.419
-758.368
-880.642
-662.032
-725.014
-923.19
-811.735
-532.278
-1010.49
-970.391
-1030.91
-858.418
-896.647
-821.128
-960.192
-1003.04
-1083.16
-1043.78
-989.554
-865.188
-832.101
-937.008
-758.568
-910.105
-884.16
-854.962
-621.618
-426.886
-1032.35
-950.212
-624.285
-350.508
-1001.03
-1046.07
-814.019
-1007.49
-753.068
-1039.16
-719.451
-1092.13
-1047.01
-1063.05
-875.795
-1078.3
-736.871
-965.151
-996.986
-997.44
-679.381
-1014.05
-860.797
-805.246
-1065.83
-332.197
-270.537
-746.81
-928.025
-854.385
-1101.65
-950.678
-353.758
-712.882
-721.709
-1046.2
-464.225
-724.216
-945.689
-654.452
-702.144
-973.805
-932.439
-677.304
-766.239
-876.174
-351.274
-944.483
-653.426
-658.441
-709.887
-796.266
-733.492
-699.066
-873.517
-1014.36
-1055.95
-964.212
-1043.62
-455.434
-731.109
-1076.53
-830.765
-939.14
-789.474
-755.066
-1032.02
-689.409
-965.148
-791.635
-798.16
-1005.83
-748.626
-843.526
-971.866
-952.595
-1017.92
-996.138
-876.946
-829.619
-867.798
-321.053
-909.277
-966.998
-861.359
-1094.23
-749.608
-985.144
-958.976
-941.159
-282.923
-1064.7
-1000.14
-1090.29
-1053.46
-794.249
-791.641
-459.633
-757.097
-875.69
-926.731
-928.847
-1006.98
-1012
-765.21
-949.484
-996.241
-960.985
-804.286
-830.681
-735.708
-880.122
-732.22
-956.598
-526.167
-653.181
-573.012
-991.432
-1067.39
-908.788
-286.638
-965.54
-969.859
-1081.81
-1099.79
-819.723
-759.303
-329.945
-463.879
-976.093
-686.823
-701.128
-891.657
-891.887
-731.805
-712.709
-410.251
-765.932
-1057.88
-601.231
-313.787
-931.246
-936.143
-786.736
-967.517
-1065.94
-651.759
-474.486
-709.003
-789.63
-932.338
-894.615
-884.119
-977.036
-1031.84
-1004.95
-995.642
-982.557
-1027.03
-826.228
-234.581
-617.284
-426.73
-1080.76
-866.623
-549.602
-994.723
-943.177
-999.406
-750.975
-445.456
-712.262
-945.899
-782.601
-702.914
-690.104
-815.143
-918.151
-519.564
-1065.19
-855.569
-911.064
-582.266
-583.412
-981.819
-984.126
-748.383
-523.808
-969.135
-1086.13
-951.979
-804.757
-1021.63
-828.239
-965.035
-582.739
-994.927
-982.344
-438.771
-784.278
-954.772
-667.091
-691.371
-820.033
-891.084
-1110.62
-1018.86
-1024.32
-991.708
-708.521
-689.289
-915.064
-1031.37
-1043.1
-1074.3
-966.666
-850.614
-614.895
-634.788
-992.015
-807.236
-563.394
-840.96
-856.117
-815.56
-855.943
-779.026
-906.814
-476.783
-754.189
-997.607
-403.117
-1010.56
-1023.46
-1014.23
-985.759
-1042.12
-1052.45
-596.395
-1004.27
-789.88
-397.909
-873.994
-861.539
-988.25
-862.712
-922.991
-826.083
-883.138
-972.891
-1058.66
-835.151
-883.032
-905.544
-606.456
-475.969
-706.561
-964.057
-912.945
-966.152
-962.039
-932.005
-986.384
-847.369
-780.413
-895.228
-887.571
-856.704
-833.703
-934.655
-974.57
-985.579
-420.156
-962.994
-964.198
-748.656
-927.616
-892.384
-820.593
-881.043
-923.043
-1074.04
-791.745
-782.254
-1032.49
-355.499
-877.809
-925.722
-941.406
-822.368
-985.573
-1005.27
-955.683
-829.276
-863.461
-915.294
-891.349
-952.592
-950.877
-1105.41
-1075.09
-882.5
-655.632
-718.565
-621.669
-639.87
-686.115
-1089.06
-838.782
-954.068
-649.381
-781.779
-413.593
-1023.36
-1117.7
-1112.65
-858.365
-1004.42
-979.436
-727.05
-877.197
-1016.64
-442.787
-1006.56
-967.168
-675.989
-675.81
-1012.51
-809.33
-844.536
-766.339
-469.949
-803.632
-800.415
-1042.79
-459.469
-492.731
-587.468
-987.52
-726.923
-909.947
-781.587
-823.965
-747.933
-753.76
-328.176
-470.826
-437.292
-646.808
-864.651
-961.912
-396.263
-1011.4
-994.781
-803.857
-693.536
-907.32
-693.927
-908.804
-952.924
-1049.61
-952.582
-933.953
-869.29
-860.985
-920.449
-1019.35
-1025.06
-503.098
-760.58
-962.402
-778.363
-967.899
-872.137
-761.344
-786.603
-1017.33
-981.046
-749.199
-760.082
-942.921
-636.973
-976.972
-945.999
-844.76
-973.651
-978.09
-903.526
-990.89
-1069.67
-1029.58
-974.434
-975.406
-1012.21
-324.85
-1006.05
-603.573
-808.125
-821.161
-927.839
-917.3
-898.686
-859.488
-854.478
-627.392
-718.401
-265.94
-461.875
-1014.52
-994.305
-1003.14
-809.412
-1010.4
-972.259
-1022.24
-1004.86
-837.873
-354.782
-984.329
-1117.45
-256.746
-835.64
-1108.17
-965.011
-940.835
-1006.44
-731.505
-775.151
-1092.5
-1069.31
-1005.4
-983.111
-909.16
-864.328
-858.849
-961.895
-477.881
-833.816
-1028.67
-825.402
-993.276
-990.567
-1052.93
-902.341
-1053.66
-987.988
-1015.93
-1013.49
-866.147
-817.375
-983.188
-709.464
-837.17
-838.513
-877.66
-825.233
-1072.12
-867.163
-1014.9
-979.838
-900.388
-740.38
-866.911
-985.224
-730.503
-847.231
-950.274
-992.08
-1012.92
-890.614
-992.531
-570.22
-1055.3
-1060.45
-977.686
-996.121
-1120.77
-776.337
-1016.17
-824.75
-865.155
-784.268
-825.289
-882.481
-476.597
-1047.52
-1001.58
-1051.57
-494.631
-1005.77
-610.942
-1066.97
-777.378
-806.962
-814.262
-996.569
-1104.92
-883.777
-1061.85
-973.254
-998.272
-894.013
-1025.14
-939.665
-811.954
-809.084
-968.857
-968.496
-995.04
-767.899
-858.012
-1025.67
-971.492
-979.294
-965.785
-974.193
-512.409
-725.55
-736.842
-412.727
-866.076
-978.421
-993.475
-471.95
-780.596
-693.318
-1009.11
-994.393
-999.552
-1050.15
-1075.95
-865.883
-863.797
-455.911
-728.725
-935.746
-482.748
-961.84
-797.333
-1099.41
-940.301
-965.495
-738.555
-724.898
-959.913
-700.607
-1022.05
-764.365
-999.439
-1002.76
-984.129
-970.559
-972.835
-1031.73
-811.581
-887.529
-305.735
-1062.47
-859.819
-869.709
-765.846
-814.911
-1009.04
-876.139
-821.492
-832.802
-815.13
-944.552
-1023.88
-963.356
-822.423
-849.173
-845.26
-979.413
-1033.44
-739.845
-975.453
-801.245
-821.838
-945.224
-826.711
-822.62
-812.703
-660.307
-654.054
-986.361
-810.229
-970.514
-968.734
-856.635
-661.295
-971.867
-1000.58
-801.212
-817.887
-823.685
-819.387
-988.564
-877.315
-858.482
-631.132
-611.531
-819.708
-843.379
-849.899
-811.325
-806.403
-822.911
-822.517
-838.961
-993.645
-850.881
-813.765
-822.832
-809.7
-976.794
-819.677
-854.787
-948.309
-751.382
-985.564
-788.432
-858.021
-785.805
-679.567
-882.165
-958.342
-1029.3
-449.073
-807.173
-995.357
-987.336
-822.96
-839.247
-734.268
-822.337
-823.383
-331.215
-885.395
-933.523
-817.783
-814.754
-1010.88
-828.887
-1080.85
-1031.66
-752.632
-802.527
-936.634
-813.248
-813.838
-995.299
-849.058
-334.64
-534.429
-860.026
-1049.99
-970.97
-710.833
-818.099
-271.002
-827.99
-571.614
-1079.77
-1023.85
-929.958
-822.858
-819.339
-993.449
-1081.26
-843.55
-821.584
-797.385
-1009.2
-887.208
-968.694
-848.581
-813.503
-805.907
-868.796
-848.503
-776.38
-670.256
-628.505
-578.62
-1008.04
-360.063
-817.282
-819.02
-731.047
-802.023
-987.361
-923.412
-903.21
-818.626
-820.847
-963.429
-948.342
-448.793
-988.301
-408.056
-485.592
-747.318
-851.941
-815.829
-848.395
-778.682
-842.788
-793.333
-982.826
-973.524
-854.348
-551.892
-691.252
-500.153
-485.387
-827.769
-827.895
-1068.63
-1057.69
-968.104
-898.367
-812.136
-816.739
-773.204
-979.821
-811.228
-805.529
-1090.31
-1102.7
-794.656
-744.678
-808.342
-281.402
-879.03
-866.066
-369.084
-380.688
-818.462
-731.527
-734.308
-972.969
-782.478
-340.424
-929.704
-934.953
-920.842
-843.485
-852.115
-810.272
-858.486
-986.115
-994.51
-864.611
-393.403
-980.169
-981.716
-486.411
-986.889
-952.187
-1112.45
-852.726
-997.605
-997.004
-1011.63
-965.341
-972.964
-912.323
-817.903
-815.727
-909.027
-972.183
-425.529
-884.156
-1033.67
-884.812
-837.397
-1106.1
-397.509
-929.966
-840.761
-845.272
-829.132
-1032.56
-823.728
-461.234
-942.153
-769.423
-1080.46
-491.991
-809.481
-473.082
-794.182
-996.243
-670.66
-690.312
-874.917
-718.055
-721.136
-762.263
-959.777
-989.473
-833.724
-867.512
-848.035
-835.387
-829.546
-515.44
-561.671
-964.224
-826.433
-843.118
-848.036
-307.901
-966.826
-791.198
-750.421
-820.733
-996.048
-1014.4
-843.354
-631.662
-440.983
-439.832
-971.497
-379.59
-419.36
-596.338
-973.88
-775.557
-799.018
-990.699
-655.425
-820.744
-397.846
-973.607
-942.678
-823.147
-904.292
-870.77
-525.595
-1012.85
-849.374
-409.841
-937.033
-743.878
-881.943
-843.38
-815.931
-958.908
-933.788
-415.648
-965.382
-906.135
-910.418
-935.448
-740.454
-329.683
-1047.78
-425.282
-954.157
-314.782
-531.25
-310.418
-635.429
-947.588
-964.679
-821.34
-1039.95
-882.022
-637.449
-766.886
-752.415
-858.83
-770.412
-914.36
-826.788
-792.245
-803.022
-785.137
-797.07
-504.933
-953.096
-933.782
-969.318
-997.857
-782.83
-1075.32
-835.493
-817.032
-939.975
-980.627
-981.186
-986.052
-994.352
-985.614
-969.087
-414.355
-480.409
-494.073
-490.658
-505.111
-986.552
-675.323
-668.686
-791.542
-1016.24
-875.437
-854.998
-887.177
-1035.79
-509.346
-476.661
-975.756
-796.878
-469.9
-1084.35
-1082.98
-873.536
-838.873
-1038.16
-946.415
-779.502
-1102.31
-1092.54
-763.199
-692.122
-713.254
-731.3
-767.619
-688.349
-755.556
-464.486
-974.774
-961.162
-962.823
-265.49
-467.644
-449.07
-965.94
-960.772
-858.993
-560.204
-985.046
-1030
-564.1
-844.493
-941.2
-981.952
-867.647
-845.236
-780.791
-819.133
-816.498
-982.456
-1041.88
-1016.4
-935.808
-880.594
-822.097
-459.227
-994.509
-1009.28
-843.167
-1012.63
-824.881
-957.572
-943.242
-915.941
-946.182
-1047.52
-856.914
-497.222
-629.459
-839.897
-973.607
-334.122
-509.068
-451.62
-912.773
-895.941
-831.506
-304.081
-439.434
-887.195
-931.457
-890.651
-806.537
-862.937
-834.391
-769.016
-879.021
-982.958
-958.814
-302.492
-318.306
-829.809
-945.689
-812.805
-399.467
-1008
-1001.57
-996.233
-908.99
-899.568
-988.264
-976.266
-439.624
-877.968
-1051.53
-568.96
-755.439
-979.46
-965.59
-1034.55
-356.127
-990.004
-978.125
-824.215
-1044.43
-962.68
-896.373
-311.516
-857.27
-978.195
-983.639
-966.897
-957.743
-958.341
-956.087
-582.074
-564.548
-899.142
-715.31
-847.275
-859.235
-837.843
-357.275
-1008.75
-416.326
-403.715
-807.535
-613.92
-337.229
-394.262
-940.615
-997.668
-911.5
-451.446
-389.585
-939.585
-480.285
-985.435
-376.816
-499.024
-592.536
-738.708
-678.593
-983.127
-449.672
-765.097
-599.559
-979.765
-960.528
-677.893
-423.432
-646.578
-797.832
-394.971
-973.754
-956.847
-854.738
-742.877
-945.49
-692.28
-789.412
-425.544
-709.235
-710.118
-549.317
-483.35
-640.445
-1019.91
-988.288
-389.861
-1043.05
-633.386
-625.445
-577.25
-371.408
-214.67
-969.887
-435.029
-358.978
-503.754
-386.643
-1057.75
-288.757
-421.884
-387.124
-714.904
-628.863
-560.749
-356.84
-986.192
-500.875
-409.501
-687.309
-926.185
-448.603
-290.11
-926.009
-951.065
-580.684
-956.309
-347.885
-1052.44
-1014.66
-637.887
-992.036
-974.251
-988.862
-1004.87
-1011.56
-1002.61
-1001.05
-1017.64
-323.907
-982.932
-451.71
-423.533
-1049.07
-816.674
-988.352
-971.966
-980.262
-963.397
-548.732
-1011.61
-686.881
-953.163
-675.775
-951.202
-833.857
-684.253
-859.374
-341.354
-822.369
-932.248
-957.575
-550.234
-969.763
-726.05
-387.992
-935.292
-860.5
-604.999
-811.764
-910.898
-939.176
-947.776
-1006.53
-1035.98
-445.029
-840.087
-1015.39
-573.402
-1040.54
-1058.42
-355
-998.298
-1027.19
-628.261
-910.954
-422.056
-440.543
-932.482
-606.723
-508.917
-532.983
-902.569
-1003.51
-1036.66
-934.279
-1017.94
-772.558
-1014.24
-900.52
-993.581
-973.396
-997.175
-664.849
-885.744
-645.504
-904.906
-1015.52
-1017.12
-466.762
-956.335
-962.575
-966.563
-838.909
-888.197
-827.363
-557.797
-730.234
-576.292
-906.778
-1024.52
-474.721
-993.314
-876.098
-1027.91
-883.506
-870.058
-813.688
-1008.97
-973.161
-842.75
-831.394
-999.095
-1032.57
-1026.93
-1042.44
-916.539
-865.333
-1026.14
-1012.64
-783.473
-521.589
-922.785
-884.802
-899.573
-897.66
-953.215
-1049.52
-917.884
-1012.85
-959.843
-1024.26
-348.029
-496.233
-986.343
-841.217
-1045.09
-792.78
-1016.15
-809.904
-1017.32
-487.915
-419.58
-859.236
-780.008
-774.211
-982.577
-950.277
-817.757
-803.257
-1024.26
-950.956
-982.848
-880.883
-988.755
-911.118
-1030.21
-966.699
-799.155
-1018.52
-848.948
-1022.1
-861.264
-1014.72
-381.524
-875.811
-863.761
-947.834
-969.175
-1038.06
-557.537
-1009.95
-659.438
-860.873
-1014.31
-860.782
-976.314
-907.86
-524.51
-911.71
-918.509
-965.515
-971.77
-794.694
-965.507
-946.955
-1013.87
-925.498
-977.102
-971.836
-880.573
-1064.64
-1007.73
-1004.64
-801.918
-990.71
-797.454
-725.954
-869.546
-973.04
-920.766
-1073
-1000.07
-749.243
-808.73
-990.624
-664.608
-993.637
-853.9
-843.32
-837.966
-830.971
-965.949
-917.219
-1045.9
-751.067
-898.938
-736.044
-864.499
-810.289
-820.45
-501.996
-846.849
-875.397
-706.079
-859.714
-900.628
-922.281
-881.752
-993.324
-1004.65
-992.094
-901.557
-985.937
-952.721
-957.651
-1123.86
-917.079
-868.89
-922.85
-1008.99
-1001.28
-854.991
-865.985
-986.614
-985.811
-906.691
-1071.74
-969.802
-769.373
-949.949
-993.468
-808.711
-702.956
-687.426
-1057.47
-998.485
-474.442
-899.754
-879.039
-961.81
-456.665
-829.013
-998.993
-715.433
-702.425
-932.747
-516.338
-950.248
-971.366
-359.982
-1073.99
-981.269
-753.131
-855.086
-917.854
-631.207
-448.619
-1008.43
-1107.85
-799.961
-864.545
-910.806
-1061.4
-998.182
-341.335
-861.555
-605.682
-351.209
-877.96
-925.066
-867.34
-956.627
-585.793
-611.265
-701.547
-962.438
-946.958
-951.811
-831.204
-882.94
-889.215
-692.382
-454.939
-860.955
-538.151
-863.391
-761.393
-821.033
-1029.22
-984.035
-914.479
-864.059
-988.832
-715.181
-917.504
-744.181
-1091.13
-798.022
-338.171
-978.987
-882.276
-775.926
-971.64
-914.93
-993.223
-882.345
-889.207
-945.915
-1082.92
-900.418
-865.593
-868.622
-1013.16
-893.572
-1051.56
-505.396
-855.51
-837.165
-1016.66
-1016.67
-476.36
-420.606
-873.284
-891.191
-901.679
-884.135
-824.359
-880.903
-1053.48
-1017.87
-879.855
-963.983
-385.997
-877.715
-958.326
-1083.07
-902.116
-1006.3
-854.593
-958.282
-856.972
-979.29
-867.956
-989.363
-893.522
-1035.61
-1075.56
-1078.39
-839.345
-846.2
-334.165
-894.266
-867.907
-898.434
-703.206
-477.977
-1037.96
-1086.18
-961.659
-681.687
-1034.1
-975.122
-875.378
-973.12
-1069.45
-458.611
-865.933
-900.362
-965.107
-502.559
-511.854
-546.985
-1059.77
-674.367
-818.44
-862.154
-1022.14
-747.469
-763.976
-880.848
-822.762
-819.935
-712.624
-618.542
-815.611
-981.974
-861.669
-894.516
-894.307
-898.487
-734.435
-713.946
-812.964
-1088.46
-858.192
-445.031
-694.685
-711.087
-1077.52
-887.364
-891.95
-851.192
-333.389
-960.286
-802.035
-483.464
-1071.08
-912.132
-890.149
-856.042
-855.31
-831.484
-991.754
-881.128
-803.701
-409.44
-795.438
-329.85
-602.381
-944.144
-935.822
-849.06
-812.823
-801.49
-901.559
-538.212
-969.258
-913.582
-826.938
-863.51
-981.485
-954.438
-1096.34
-890.618
-802.742
-350.445
-893.233
-750.231
-949.446
-801.349
-871.394
-858.28
-900.667
-1122.55
-1017.4
-1020.63
-697.422
-720.033
-908.552
-919.661
-995.661
-374.579
-1104.09
-855.622
-823.516
-864.297
-934.404
-798.433
-279.743
-867.908
-919.623
-903.085
-839.724
-670.77
-889.256
-1038.47
-506.986
-1004.35
-943.048
-948.236
-1025.79
-460.985
-474.222
-563.824
-1022.79
-901.353
-971.747
-640.462
-902.581
-1051.22
-810.376
-819.13
-445.198
-439.364
-1011.97
-875.492
-826.674
-869.163
-1003.75
-350.844
-433.4
-979.986
-990.717
-1091.69
-890.014
-314.975
-862.345
-493.54
-1048.67
-712.67
-536.873
-738.803
-769.652
-955.236
-942.36
-1001.6
-696.441
-713.655
-917.652
-884.407
-980.479
-987.17
-878.603
-899.478
-971.365
-969.262
-882.001
-960.959
-973.314
-874.861
-459.589
-774.203
-1037.24
-1030.33
-1047.08
-821.622
-1053.8
-1098.44
-499.092
-553.416
-655.951
-699.609
-788.868
-1081.92
-979.729
-847.479
-854.405
-941.88
-974.427
-1066.71
-896.561
-743.593
-914.538
-635.613
-297.286
-857.18
-851.6
-913.134
-937.764
-1026.85
-771.432
-756.086
-860.111
-920.682
-797.782
-452.141
-840.079
-840.09
-860.441
-856.62
-533.289
-679.488
-1056.57
-1039.55
-989.347
-1072.67
-943.321
-748.725
-940.566
-493.994
-506.833
-534.383
-558.38
-682.033
-919.299
-1034.12
-673.322
-654.192
-800.942
-811.573
-877.764
-863.821
-959.102
-558.064
-739.775
-826.925
-618.769
-865.012
-661.928
-1093.27
-1013.84
-1081.38
-982.747
-1090.99
-1087.41
-793.599
-861.105
-835.316
-1007.11
-884.109
-958.708
-607.687
-879.903
-1016.39
-840.862
-688.588
-947.821
-883.395
-547.151
-1014.97
-886.055
-852.732
-731.024
-1028.44
-636.709
-694.829
-844.703
-895.426
-1120.21
-1085.61
-1068.63
-960.593
-777.106
-819.468
-867.195
-847.058
-880.903
-953.869
-1016.08
-717.855
-837.002
-955.908
-945.327
-956.28
-808.93
-840.621
-797.835
-980.967
-720.356
-473.506
-965.057
-1075.22
-905.056
-924.476
-983.721
-922.015
-914.21
-931.192
-505.259
-904.686
-901.128
-780.56
-680.747
-837.439
-849.506
-1020.46
-960.989
-937.877
-979.298
-1084.9
-985.991
-948.947
-950.76
-696.099
-690.893
-824.883
-815.033
-932.3
-954.454
-649.564
-791.033
-704.654
-879.462
-993.63
-923.258
-894.275
-495.497
-758.807
-1027.34
-842.186
-985.11
-878.676
-858.323
-936.534
-1097.15
-708.335
-852.945
-935.411
-962.112
-757.423
-816.94
-906.498
-957.399
-864.122
-986.369
-889.841
-981.05
-611.742
-923.223
-998.322
-1004.35
-846.235
-844.645
-949.779
-416.643
-1007.52
-1022.85
-368.013
-1087.4
-864.779
-469.479
-961.176
-859.746
-795.258
-864.375
-982.675
-1005.98
-804.195
-808.692
-653.021
-809.688
-777.436
-1086.73
-885.777
-873.619
-696.843
-868.73
-952.414
-1084.65
-894.321
-1035.43
-848.805
-842.582
-1062.97
-1045.94
-1000.62
-979.816
-969.755
-773.137
-798.503
-870.61
-891.911
-859.908
-929.437
-996.916
-472.887
-1046.14
-985.266
-899.64
-1054.97
-779.935
-996.953
-761.421
-985.604
-825.904
-1009.62
-998.906
-748.527
-986.378
-611.864
-655.202
-1055.26
-1085.22
-1024.71
-984.93
-303.665
-668.218
-1075.93
-794.844
-788.854
-834.21
-1082.2
-892.924
-1009.07
-911.044
-911.725
-767.355
-1027.39
-1115.8
-865.924
-875.748
-793.084
-943.086
-837.301
-462.216
-942.04
-924.284
-990.646
-988.764
-976.095
-1054.92
-971.323
-1091.6
-1060.26
-870.658
-837.032
-861.841
-894.546
-447.057
-411.269
-981.852
-879.257
-587.193
-645.058
-866.39
-1038.04
-481.113
-632.019
-601.473
-1100.37
-1079.98
-1086.24
-875.057
-875.64
-1098.47
-1056.37
-437
-889.973
-843.469
-944.325
-937.988
-1066.56
-492.547
-957.523
-526.794
-585.124
-814.838
-907.109
-839.068
-384.459
-1025.21
-627.353
-575.5
-1039.93
-969.236
-630.063
-793.357
-894.064
-926.899
-632.144
-943.833
-1069.73
-941.744
-904.506
-907.324
-845.454
-849.896
-743.504
-776.47
-1016.05
-826.859
-1091.82
-1068.57
-1050.06
-310.25
-998.967
-741.104
-979.09
-955.421
-884.48
-1085.9
-1090.66
-983.225
-983.046
-476.363
-742.558
-674.601
-969.317
-1009.56
-914.703
-440.834
-448.296
-922.806
-588
-611.282
-981.813
-953.069
-1002.1
-982.907
-1000.76
-981.358
-849.613
-796.017
-278.769
-978.038
-862.622
-860.797
-1018.08
-763.261
-856.363
-763.458
-778.957
-930.816
-985.902
-831.7
-1004.73
-1006.97
-812.824
-919.522
-937.426
-980.898
-976.18
-949.971
-611.501
-1013.77
-850.17
-821.796
-718.624
-950.6
-1107.41
-1084.09
-886.678
-774.842
-992.261
-997.989
-1008.27
-970.801
-884.872
-843.721
-695.46
-555.694
-535.194
-1001.51
-935.567
-857.558
-433.636
-866.76
-564.118
-557.316
-904.512
-892.989
-392.239
-1020.32
-711.344
-1082.78
-1066.56
-669.583
-883.142
-481.07
-1021.22
-400.594
-660.131
-910.926
-704.173
-931.847
-483.04
-575.111
-388.225
-1000.75
-918.15
-1082.69
-705.794
-1006.95
-456.92
-1021.15
-570.701
-358.65
-802.951
-867.589
-941.207
-933.754
-671.08
-810.248
-849.023
-1049.09
-947.724
-1011.72
-933.766
-724.973
-924.874
-975.288
-925.196
-743.956
-719.48
-706.92
-885.699
-763.947
-744.526
-988.63
-850.426
-957.192
-960.242
-1034.07
-1034.75
-1056.21
-864.11
-982.37
-905.908
-868.232
-770.268
-417.52
-760.443
-912.218
-904.505
-1025.22
-978.444
-966.753
-752.444
-926.082
-870.361
-1010.12
-843.834
-970.817
-880.321
-886.617
-473.076
-458.87
-875.353
-962.994
-855.48
-872.213
-572.662
-1022.99
-649.94
-973.563
-971.293
-942.274
-1088.62
-905.187
-836.314
-585.811
-545.67
-777.773
-687.194
-334.145
-954.973
-939.606
-932.484
-496.954
-360.616
-397.833
-1079.52
-988.899
-1050.17
-784.452
-1009.45
-940.718
-1045.11
-759.938
-984.391
-440.212
-1054.28
-765.495
-713.818
-823.207
-941.421
-982.822
-985.263
-992.178
-980.777
-972.689
-1075.79
-1080.79
-735.389
-1093.62
-962.241
-1028.95
-965.301
-962.735
-760.556
-878.423
-664.815
-720.031