/*--------------------------------*- C++ -*----------------------------------*\
| =========                 |                                                 |
| \\      /  F ield         | OpenFOAM: The Open Source CFD Toolbox           |
|  \\    /   O peration     | Version:  2212                                  |
|   \\  /    A nd           | Website:  www.openfoam.com                      |
|    \\/     M anipulation  |                                                 |
\*---------------------------------------------------------------------------*/
FoamFile
{
    version     2.0;
    format      ascii;
    arch        "LSB;label=32;scalar=64";
    class       surfaceScalarField;
    location    "10";
    object      phi;
}
// * * * * * * * * * * * * * * * * * * * * * * * * * * * * * * * * * * * * * //

dimensions      [0 3 -1 0 0 0 0];

oriented        oriented;

internalField   nonuniform List<scalar> 
189795
(
-0.00307371
0.000909237
-0.00848134
0.0092284
-0.00508719
0.00184371
0.00306469
0.000182061
-0.000235369
-0.00646181
0.00648098
0.000187118
0.00212588
0.00326802
-0.00326314
-0.00233922
-0.00115699
0.00204781
-0.00103146
0.006983
-0.000870778
-0.00427368
-0.00336699
0.00265466
0.00111165
-0.000387407
-0.000301672
-0.00502463
0.00439381
0.000945591
-0.0016894
-0.00062402
0.00236843
-6.35739e-05
-0.00098982
0.00354781
-0.00300019
0.000278335
-0.00352799
0.00180774
4.76589e-05
-0.001883
0.00178455
-0.00108464
-0.00367636
-0.000786751
0.00391473
0.000136511
0.0030305
-0.00528096
0.00125745
0.00094271
-0.0011456
-0.00219241
0.00400648
-0.000581083
0.00386579
-0.00195798
-0.00188257
5.5551e-05
-0.00568737
0.00253859
-0.000343385
-0.00319241
0.00161976
0.00466418
-0.00310674
-0.000163763
0.00169544
-0.0024192
0.00100499
-0.00235617
-0.000872828
-0.000149399
-0.00652187
-0.000154217
0.00346716
-0.00444772
0.00461524
0.00048611
-0.000645602
0.00330002
0.00043428
0.000195402
0.00137026
-0.00207309
0.000513309
-0.00422221
0.00432426
-0.00115644
0.00248889
0.000954927
-0.00344605
-6.40896e-06
0.00145426
-0.0032648
0.00197225
-0.00015937
0.00528067
-0.00321686
-0.00201362
7.28128e-06
-0.00297024
-0.0007236
-0.00154288
0.0058128
-0.00242019
0.00310584
0.0251479
0.0250331
-0.014195
-0.00550106
0.00116384
0.00358126
-0.00628864
0.00147278
-0.00335896
0.00229169
0.000707078
0.000399263
-0.00122203
0.00291831
-0.000263113
-0.00365404
0.00592087
-0.00121416
-0.000898431
0.00341492
-3.273e-06
0.0211941
-0.000152618
-0.0212615
4.93181e-06
0.00176017
0.00394288
0.00139284
-0.0051715
0.00668697
-0.00196917
0.00052823
0.00070665
0.00699317
-0.00719973
-0.000390007
0.0207438
0.0119931
-0.0113429
-0.00396461
0.00200125
0.00173153
0.000227518
0.0033971
-0.000521779
-0.00320088
0.000118741
0.000482233
-0.00273029
0.00210452
0.000162025
-0.00217101
0.00260899
2.98744e-05
-0.0033087
-0.00281916
-0.000383998
-0.00158305
0.00302702
-0.00130575
-9.78542e-05
-0.000140643
0.00217659
-0.00174447
-0.000296985
0.00188224
-0.00238577
0.000353871
0.00695026
-0.00473954
-0.000349663
-0.00172114
0.00821363
-0.00405063
-0.00036206
-0.00402596
0.000422566
0.00710656
0.000635024
0.00455642
-0.00142305
-0.00315454
5.16407e-05
0.00591254
-0.00970259
-0.00142908
0.00517357
-0.00108654
-0.00269214
-0.00130603
0.00448586
0.00351628
-0.0101635
0.00204968
0.00539489
-0.00140792
-0.000546084
-0.00417993
0.00223911
-0.00564
0.00576374
4.21373e-05
0.00689371
-0.00240754
-0.00387538
0.00321272
0.000767121
-0.000449012
-0.0027544
-0.000327198
0.00607677
0.00167698
-0.00250033
-0.00132034
0.00502221
-0.000381121
0.00601551
-0.00663761
-0.000429683
0.00088629
7.79062e-05
-0.00813269
0.00660229
0.00143418
-0.0101146
0.00367586
-0.00305788
0.00126254
0.0017947
5.20263e-06
-0.00568242
0.00638336
-0.000855069
-2.14399e-05
-0.00346352
0.00622875
-0.00325787
0.000544015
0.000950285
-0.00493044
0.000520704
0.00370553
-0.000214443
-0.00372696
0.000180131
0.00399218
0.00405096
-0.00100708
0.00296815
-0.00575687
0.00410187
-0.00127662
0.00109925
0.00178492
-0.00296281
8.45372e-05
0.000935856
0.000664281
-0.00133148
-0.000172447
0.00254189
-0.00155178
0.000128026
0.00713819
-0.00130878
-0.00128686
0.00118677
-0.00677401
0.00023635
0.00565518
0.0026585
-0.000801594
-0.00223735
0.000447453
-0.00655065
0.00262373
0.00651155
-0.00263619
-0.000652706
-0.00348724
0.00355887
0.00058705
0.00470481
-0.00508374
-0.000652366
0.00106541
0.00467588
0.001298
-0.000172379
-0.00079702
0.00299936
-0.00304171
0.000850004
0.00255016
0.000396604
-0.0033473
0.000407532
0.00835553
-0.00479512
-0.000846924
-0.00260001
-0.000852535
-0.000114731
0.00479933
-0.00413317
-0.0028675
0.0035513
-0.00128544
0.00378012
-0.000555859
0.000482504
0.00211104
0.0025941
-0.0028424
0.00538506
-0.000798783
0.00443682
0.00153917
0.0023329
-0.00589406
-0.00173273
-0.00603959
0.00200041
0.00399147
-6.93393e-05
-0.000351662
0.00432336
-0.00485907
0.000929077
0.0315628
-0.0226191
-0.00349819
-0.00602248
-0.00728537
0.000927961
0.00572409
0.00045637
-0.00054853
0.00558306
-0.00546971
0.000381218
-0.00417713
0.00366625
-0.000906084
-0.000515925
-0.00533763
-0.000288259
0.000592784
0.00272023
-0.00393345
0.00070619
-0.00323126
0.007692
-0.00445208
-9.21257e-05
-5.91822e-05
0.00214589
-0.000901141
-0.00133336
0.00144921
-0.00059179
-0.00191068
0.0011208
0.0159099
0.0159691
-0.0049566
0.00395705
0.000867584
0.000174951
-0.00446415
0.000235072
-0.00159366
0.00599403
-0.000909812
-0.00311057
0.0300939
0.00053795
0.00190498
0.000470714
-0.00158758
-0.000759227
0.00347781
-0.00188918
-0.0016771
0.000109386
-0.00347746
-0.00343984
0.00413841
-0.00258943
-0.00109717
-0.00400105
0.0282168
0.00131333
0.00467925
-0.000323071
-0.00575896
0.00696691
-0.000495139
0.00148175
0.00148006
-0.00315306
0.000192803
0.00684913
-0.00455483
-0.00261624
0.000109471
0.00032856
0.0032279
-0.000762128
-0.000528049
-0.00440949
0.00274008
0.00072052
0.00220839
0.00170557
0.000801834
-0.00338418
0.00348506
-0.00120034
-0.00268705
0.00215389
0.00184295
-0.00108083
-0.00249066
0.00106463
0.00213282
-0.000222478
-0.00204239
-1.55124e-05
-0.00405417
0.00112937
0.00224616
0.000670994
-0.00729127
0.000961334
0.000587088
-0.000433103
0.000885281
-0.00103955
0.000213262
-0.00042306
-0.00314098
0.00240737
0.00136989
-0.000751822
-0.00237598
-0.00333693
0.000756703
-0.0112785
0.00562779
0.00171224
0.019836
-0.00956046
-0.0156042
0.00296116
-0.0096965
0.00314636
0.00371732
-0.00548615
0.018864
-0.0119396
-0.00136565
0.00421954
-0.000329152
-0.00389271
-0.000166165
-0.00143698
-0.00695772
0.0093548
-0.00114121
-0.00303819
0.00318038
-0.000386388
-0.00437165
-0.00500354
-0.00202168
0.000634543
5.74809e-05
0.000703032
-0.00316473
0.000106134
0.00249541
-0.000765681
0.00117162
0.000335441
0.00793351
-0.00340723
-0.00314706
-0.00124944
0.00416507
0.000405925
0.00285374
0.00335517
-0.00722205
0.00156834
0.00243537
0.00176381
-0.00312517
0.00185814
-0.000510281
0.00447089
-0.00467777
0.00152473
0.00434834
-0.00544293
-0.000224606
0.00543283
0.00286833
-0.000673835
0.0194751
-0.0148133
-0.00431147
0.00667549
-0.00284001
-0.0034087
-0.000564139
0.00402661
-0.00748472
0.002029
0.0015646
0.000464685
-0.00282443
0.00233236
0.00235852
0.000558638
-0.00259164
-0.000302067
-0.00623862
0.00232312
0.00505681
-0.00110085
-0.00618741
-0.001106
0.00597431
0.00119967
-0.00570805
-0.000461371
0.00741646
-0.00122692
-0.00553329
-0.000490577
0.000501265
-0.00354335
0.00140736
0.000314653
0.00177418
0.00259373
0.00269725
-0.00622179
0.000914775
0.005287
-0.00235767
-0.000283153
-6.97523e-06
0.0064361
-0.000842442
-7.32464e-05
-0.000388987
0.00157941
-0.00668702
0.00346995
0.00156759
0.00455198
-0.00479038
0.00174052
0.00115912
0.00444888
-0.000279424
0.0242303
-0.00751032
-0.0151568
-0.00185182
0.00467222
-0.00526963
-0.00181817
0.00234777
-0.00680945
0.00464698
0.00233456
-0.000293874
9.86527e-05
0.00323902
-0.000155543
-0.0031451
-0.00165399
0.00415153
-0.00107032
7.0005e-06
0.000109641
-0.00336462
0.00297335
0.00027074
-0.00423665
0.00589203
-0.00129341
-0.000220932
0.00227188
-0.000661137
0.00510137
-0.00322016
-0.00141908
-0.000820952
0.0188679
-0.0170469
-0.000747245
0.00835761
-0.00519264
-0.00460523
0.00137768
0.0017435
-0.00386327
0.000415153
0.00163062
-0.00367704
0.00321032
0.000857435
0.0041332
0.00309408
-0.00256951
0.00302977
-0.000845788
-0.000475836
0.00381898
-0.00307933
-0.00452263
0.00553491
-0.000440126
-0.000650991
-0.00140859
0.00249396
-0.000510014
-0.000568373
-0.000308903
-0.0011951
0.000107892
-0.0020262
-0.00276653
0.000476976
-0.00562112
0.00140277
-0.00247201
-0.00548502
0.00540342
-0.00071583
-0.00740419
0.00666035
-0.000176554
-0.00508803
-0.00322929
-0.00120057
0.00588057
-0.00409182
-0.00230578
0.00038773
0.00296042
-0.00427576
0.00149142
-0.00014522
-0.000773749
-0.00255088
0.000290403
0.00132103
-0.00217829
0.000139398
0.00060828
0.000298671
-0.00561801
0.000682518
0.000294828
-0.00220341
2.46519e-05
0.00223285
0.00330906
-0.00433507
-0.00123931
0.0031972
-0.00714214
0.00281983
0.00101227
0.0042883
-0.0064265
0.00170743
-0.00203178
0.00338233
-0.00180382
0.000622997
0.0054744
-0.00300902
-0.00346986
0.0010493
0.00494813
0.000459136
0.00417641
0.000178968
0.00492921
0.0018823
0.00021022
0.00442643
-0.00094494
-0.000101588
0.00429263
-0.00286903
-0.00146752
0.00401916
0.000276503
-0.00208799
-0.00225649
0.0031239
-0.00381376
-7.46112e-05
-0.0021894
0.00164806
-0.00548859
0.000566408
-0.000937868
0.0229305
-0.00312129
-0.0195834
-0.000556775
-0.00706477
0.00471619
0.00109221
0.0013192
-2.98062e-05
-0.0038785
0.000237631
-0.0039371
0.000878339
0.0041251
-0.00271065
0.000476789
-0.00302702
0.00283686
-0.00210795
-0.0012559
0.000574768
0.000929348
0.00122363
-0.00209091
0.00483044
-0.00188635
-0.000881851
0.00563555
-0.00588691
0.000998667
-0.00425623
0.00441968
0.00303211
-0.00308716
0.0189495
0.000448308
-0.0100195
-0.00918788
0.00654204
0.000679575
-0.000955723
0.00692744
-0.00452085
-0.00209576
-0.000517759
-0.000650354
-0.00249864
0.00387755
0.000457358
-0.000393105
0.00022188
0.00229117
0.00101403
0.00228855
0.00101273
-0.0014985
0.00210549
0.000376659
0.00256321
-0.0260162
0.00589902
-0.000329647
0.00076416
0.00142638
-0.00268035
0.000481414
-0.00276185
-0.000161166
-0.00179726
-5.94615e-05
-0.00106342
-0.00395492
0.00281795
-0.00224748
0.00212004
-6.74433e-05
0.00178285
-0.00193617
-0.000655829
-0.0016872
-0.00106136
-0.00317021
-0.00084284
-1.21145e-05
0.0028944
-0.00232092
-0.000482481
-0.00306752
-0.00107767
0.00389546
-0.00336992
-0.000532456
5.31638e-05
0.00149509
0.00356902
-0.000185219
-0.00228102
0.00473082
-0.00121491
-0.00115222
-0.00275446
-0.0027573
0.000399954
0.0212958
-0.00139803
9.48989e-05
0.00635708
-0.00150159
0.00255444
0.00186976
-0.000277511
-0.00555488
0.00640936
0.00126533
0.000741752
-0.00774244
0.00279447
-0.00146916
0.00341426
-0.00166828
-0.00028321
0.00305446
-0.00153405
-0.000100562
-0.00221622
-0.00534124
0.0009959
0.00949841
-0.0353214
0.0251176
-0.00117034
-0.000467772
0.00153653
4.80071e-05
0.00208577
0.00360287
0.000934435
0.00444251
0.00182753
-0.00088298
0.00159222
0.00244995
-0.00640642
0.00488863
-0.000644256
0.00306648
-0.000843236
-0.00167217
-0.000534597
0.00394511
-0.00402772
9.53542e-05
0.00171404
-0.000635788
0.00349847
8.23786e-05
-0.000542631
0.00474813
-0.0052349
0.000804624
-0.000342098
-0.00655319
0.00178155
0.00372646
0.000841399
0.00274197
-8.63644e-05
0.00123548
-0.00418862
0.000374387
0.00308849
-0.00232655
-0.0011513
0.00211595
4.90965e-06
0.00185018
-0.0005638
-0.00653961
0.00115411
0.000578311
-0.0033145
0.00577259
-0.00200179
-0.000483732
0.00251293
-0.00544864
-0.000514599
0.00315634
-0.00216202
0.000104695
0.00223138
-0.00194558
0.000288008
-0.000553564
0.00497848
-0.00661958
0.000427275
0.00132734
-0.00349668
0.00151972
0.000462251
-0.000483637
-0.00319436
0.000351985
0.00444967
-0.000692005
-0.000424468
-0.00154227
-0.0015834
-9.20244e-06
-0.00529279
-0.0013226
0.00210087
0.000502501
0.00168196
-0.00199458
-0.000193474
-0.00351985
0.000747728
-0.00623748
0.00572738
0.00125792
-0.000652622
0.00446322
-0.000994652
-0.00274895
-0.000752034
0.00034158
-0.0023565
-0.000870876
0.00256184
-0.00121803
-0.00047168
0.00714265
-0.00133804
-0.00138352
-0.00371687
0.00218418
0.00159963
-4.08257e-05
0.00286252
0.00022778
0.00287602
-0.00311394
-0.000604943
0.00388351
-0.000145729
0.00876485
0.00672524
0.000272709
0.00125966
-0.000310884
0.000192831
0.00236069
-0.00298435
0.000369209
0.00495432
-0.00319071
-0.00104895
-0.000714065
-0.000365321
-0.00348652
-0.000567239
-0.0036395
-0.000121204
0.000317012
0.00193275
0.00151413
0.00300377
6.41067e-05
0.00449776
-7.69041e-05
0.00419799
-0.00620203
0.00275272
-0.000745586
-0.00601597
0.00538615
0.00218942
-0.00145929
-0.000634517
-0.00596164
0.00064375
4.4321e-06
0.0034731
0.00241741
-0.0212461
0.0105283
0.00339083
0.00860251
0.000854875
-0.00359281
0.00290613
-0.000167337
-0.00438011
0.000944208
0.00244917
0.000784915
-0.00162074
0.0049986
-0.000347869
0.00631787
-0.00115304
-0.00405162
-0.00107188
-0.00425108
-0.0036207
0.00859684
-0.000739475
0.00293515
-0.00105245
-0.00171557
-0.000218838
0.00548462
-0.00218426
0.000477142
-0.000902148
0.00500864
-0.00188672
0.00103294
0.00234273
0.00425099
-0.00149637
0.00249353
0.00116634
-0.000406621
-0.00725057
0.0137521
-0.00240915
0.000634657
-0.0014628
-5.96442e-05
0.00284683
-0.00184756
-0.000371248
-0.00208437
-0.0031453
-0.000882106
-0.000124535
0.00505993
-0.00473357
-0.000555748
-0.00161736
0.0012847
3.29087e-06
-0.00314423
-0.000672157
0.0302049
-0.00410518
-0.00380821
-0.00516032
0.000540955
0.00182205
-0.000831346
0.00514228
-0.00195692
0.000867879
0.00352853
0.00295868
-0.000279426
-0.00188887
0.00332017
-0.000554679
-0.00579959
-0.00161457
-4.70039e-05
-0.0103892
-0.0154586
0.00498256
0.00621105
-0.0048378
-0.000535831
-0.00932291
0.000643311
0.00518614
-0.00238876
0.00267523
-0.000704036
0.000433466
0.00202434
0.00339579
0.000276307
0.00295092
0.00296061
-0.0014608
-0.00256863
-0.00199911
0.00283119
0.00172462
-0.00272355
-0.00225105
0.000865311
0.001961
-0.00261997
0.000179168
0.000474924
-0.000361827
-0.00218728
0.00260276
-0.000365162
-0.00301063
-4.36983e-05
0.00459723
-0.000170448
-0.00362375
-0.000751354
0.00581564
-0.00135532
0.000211669
-0.00560783
0.000321037
-0.000276469
-0.00359189
0.00221319
7.44839e-05
0.00134943
-0.00323263
0.000526724
-0.00338956
0.000168788
-0.00283423
-0.00304256
-0.00119112
0.00382837
0.00216256
0.00278068
-0.000741492
0.0010906
-0.00131173
-0.00146282
0.00329087
-0.00050586
0.00411643
0.0014903
0.000220117
0.0196938
0.00572166
0.00536659
-0.00423909
-0.00104585
0.000803531
0.00252322
-0.00355931
0.000899892
0.000106787
-0.00483113
0.00314904
0.00450573
-0.00284546
0.00684062
-0.000240855
-0.00166463
0.00755569
-0.00444652
-0.000404566
-0.00285143
-0.00661891
0.00392186
0.000182028
-0.00398958
-0.000786091
-0.000113584
-0.00362214
0.000930135
0.000170853
-0.000848627
-0.00406685
-0.00210147
-0.000953339
0.0042317
-0.00421622
0.00197165
0.00285003
0.000350768
-0.000592203
0.0010557
0.002473
-0.000687736
-0.00371374
0.000441263
-0.0059541
0.000398461
0.00389828
0.00178261
-0.00367575
0.0037297
0.00053673
-0.000591465
0.00194841
-0.00249219
-0.000144029
0.000725954
0.00097807
0.000568879
-0.00631844
-0.000792535
3.85695e-05
0.00251766
-0.00034856
0.00264112
-5.453e-05
0.00198732
-0.000291082
0.000536471
0.00463715
0.00103321
-0.00139822
-0.00157796
0.000595831
-0.0030906
-0.00170956
0.00512241
-0.000287348
0.00312719
0.00078755
-0.00114342
0.000439577
-0.00147247
0.000823484
-5.33644e-05
-0.00540356
-0.00339819
0.000414656
0.00133794
0.00119866
0.00477214
-0.00154602
0.000910225
-9.55316e-05
0.0024013
0.00354776
-0.00432911
0.00280079
0.000774008
0.000465311
0.000176687
0.0029874
0.00212304
0.00172784
0.00411528
0.00157925
-0.00692716
0.00121899
-0.000655332
-0.00463297
-0.000685973
0.00222139
0.000107147
-0.000209339
-0.00282148
-0.000610796
0.00413156
-0.000721171
-0.00413474
0.00185737
-0.000611014
-0.00290848
0.00842583
-0.00144162
-0.0060053
0.00473413
0.000732023
0.000145412
-0.000536383
0.00401184
-0.00414888
0.00122003
-0.00133758
0.00204062
-0.000823687
-0.000775927
-0.00339515
-0.00055973
0.00154797
-0.0021837
-0.00152935
0.000116097
-0.00318216
0.00250153
-0.000587032
0.0193441
-0.00751363
-0.00404289
0.00589502
-1.85881e-06
0.00219821
-0.00424173
-0.000430559
-0.00443364
0.00600548
0.00121498
0.00106654
0.000790246
-0.00436586
0.00190607
0.00433198
-0.00192571
0.00333456
0.00144035
-0.00382474
-0.000994343
0.00104181
0.00246405
0.00195144
0.00618143
-0.000325046
-0.00822558
0.00231375
0.00186113
0.00114697
1.25704e-05
-0.00269825
0.0036681
-0.000937204
-5.97488e-05
0.00240607
-0.00257247
0.000401885
0.00192853
0.00168061
-0.00345641
-0.000127379
6.95646e-06
-0.000323901
-0.000565679
0.00314721
0.002636
-0.000596272
0.00502421
-0.000892648
0.000514096
0.00223469
0.00154743
-0.0032235
-0.000586092
-0.00142174
0.0034064
0.000279522
-0.00356204
0.000411146
0.000750346
0.00193017
-0.000375695
0.000307526
0.00431032
-0.00021745
0.000900299
0.000130438
-0.00276379
0.000601337
-0.00424985
0.00115708
0.00069254
0.00140884
2.02358e-05
0.00122614
-0.00294873
0.00105551
0.00151146
0.00323848
-0.00621258
0.00346145
0.00153305
0.00106835
0.00471598
0.000444057
-0.00516741
-1.50013e-06
0.0177724
-0.019981
0.00323422
-0.00248606
-0.00694144
-0.00172118
0.00284239
0.000630791
-0.00551776
-0.000288611
2.47641e-06
0.00136023
0.0010549
-0.00256063
0.00308153
-0.00214514
0.000653422
-0.00452564
0.00639235
-0.000851179
-0.00498347
0.00147433
-0.00121863
0.00119087
0.00184277
0.00165707
-0.0020114
-0.0214292
0.0319776
-0.000567596
-0.00978041
-0.00638784
0.000719844
0.00205767
0.000271163
-0.000748979
0.00378334
-4.43397e-05
0.00420617
0.00240694
-0.000416938
0.000683338
-0.00727325
0.00455119
0.00191398
0.00579666
-0.00442807
-0.00150846
0.000154395
0.000854776
-0.0039601
0.000200836
-0.0179241
0.0227777
-0.00881364
0.00516779
-0.00496001
0.002604
0.00178064
0.00502497
-0.00413838
0.000478855
-0.00142249
0.00317202
-0.00280335
-0.000491193
0.00421018
-0.000778436
0.000688339
-0.00337205
-0.000151668
-0.000179345
0.0260639
-0.00479504
-0.00702113
0.00742798
-0.00234807
-0.00475412
8.95256e-05
-0.00404886
-0.00198949
-0.000469788
-0.00465966
-7.73782e-05
0.00379898
-0.000853752
-0.00211068
-8.67653e-05
-0.000674536
0.0236337
-0.0215521
-0.000727484
-0.0058592
-0.00252959
0.00338926
-0.000210208
-0.0050137
0.00325183
-0.000333055
0.0028771
0.00298819
-0.000547319
4.13965e-05
0.00372463
0.000781779
-0.0045354
0.00735003
-0.000453948
-0.000168087
0.00181729
-0.00186181
0.00021994
0.000229388
0.000774784
0.00385035
-0.00354742
-0.00107443
-0.0137638
0.0125907
-0.00272981
0.00171418
-0.0014314
-0.00502466
0.000468758
-0.00158678
0.00331562
0.000189251
-0.00386623
-0.00161943
-0.0234611
0.0170374
0.00136158
-0.00191725
7.91475e-05
-0.000441274
0.000246928
-0.00361205
0.00121819
0.0030075
-0.000587806
-0.000754277
-0.000532704
0.00866646
-0.0145966
0.0139881
-0.00975217
0.00373184
0.00263027
-0.00182318
0.00367725
0.00111013
-0.00140142
0.00109249
-0.00272356
0.000413708
-0.000882267
0.00502238
-7.62198e-05
0.00725254
0.0179332
0.000648976
0.0047924
-0.00273553
-0.00080435
0.000653547
-0.00476263
0.00520655
-0.00109531
0.0062148
-0.004415
-0.00112673
0.0230821
-0.0343536
0.0109742
0.00530424
0.00164806
-0.00239701
0.00014481
0.000883967
0.00135452
0.00010425
0.000209939
-0.00466377
-9.21086e-06
-0.00292458
-0.000343144
0.0243825
0.000390353
-0.0212539
-0.00414962
-0.00364342
0.002819
0.000196554
-0.00347912
2.05851e-05
0.00260151
-0.0037556
0.000366412
0.000766854
-0.00102785
0.000516422
-0.0035377
-0.00290046
0.0013989
0.000420408
0.0011902
0.0019632
0.00322551
-0.000925102
-0.00337441
-0.000399282
0.000174732
0.00185418
-0.000943071
5.59701e-05
0.00244748
-0.00575619
0.00176814
0.00169922
0.00315583
-0.004999
0.000303886
0.00723366
-0.00411667
-0.000113065
-0.00501309
-0.000698194
0.00123694
0.00795915
-0.00195215
-0.00494329
0.000286283
0.00420122
0.000514258
-0.00238322
-0.00364892
0.00122394
-0.0026613
-0.00183002
-0.00181608
0.00326193
-0.00281179
0.000573182
-0.00375627
0.00776625
-0.000817645
-0.00324446
0.00088806
-0.00532321
-0.000218167
-0.00223365
-0.000525514
0.00364971
-0.000890714
-4.5666e-05
-2.5235e-05
-0.000380553
0.00514351
-0.00516497
0.000392652
-0.000449796
0.00277495
0.0265507
-0.00368445
0.00232243
0.00138
0.00883552
-0.000319368
-0.00633141
-0.00214118
0.0166116
0.0051479
-0.0201998
-0.000429447
0.00391679
-0.00279483
-0.000707707
-0.000418312
-0.00253647
-0.000651024
-0.00221398
0.00416155
-0.00148488
-0.000463927
-0.00397062
0.00174229
1.89357e-05
0.0002167
0.00808518
-0.00102293
0.00486594
0.000671367
-0.000436621
0.000198124
-0.00477116
0.00372954
0.000479314
-0.00635422
0.00198321
0.00439913
-0.000153772
0.0011644
0.00158541
-0.00500557
0.0021814
-0.0036972
0.00246321
-0.00412583
0.0152333
0.0216182
0.006214
-0.000696488
-0.000587604
0.00234208
-3.34842e-05
0.00596121
-0.000841873
-0.000871604
-0.00123206
-0.000741394
-0.000740274
-0.00262695
4.33535e-05
-0.00206834
-0.00202259
-0.000108245
0.00289588
-0.00145882
2.58987e-05
0.00304319
0.00313855
-0.00456912
-0.00135186
0.00527007
-0.003082
0.00111402
0.00418343
-0.00088696
0.00140485
0.000229171
-0.000269041
0.00124478
-0.000770046
0.000214151
-0.0012004
0.00329703
0.00269701
-2.53157e-05
-0.00464557
0.00039225
0.000382286
-0.000415625
-0.00537405
0.000284511
0.00106773
-0.00264925
0.00120816
0.00163058
-0.00490867
0.00402414
-0.000632509
-0.00021607
0.00243906
8.02439e-05
0.00260479
-0.000186315
0.0113876
-0.00482284
0.000203622
0.000145506
-0.00516723
-0.00106865
0.0150698
0.00487083
-0.000657364
0.0252218
-0.00959091
0.0045857
-0.00395125
-0.00123494
-0.00413211
-0.000494528
0.00319301
-0.00259162
-0.000139634
-0.00219107
0.00495396
-0.000168777
-0.000212642
0.0039236
-0.00110304
-0.000335288
0.00156919
0.000585396
-0.00315372
0.00230949
-1.52165e-05
0.00113342
0.00180834
3.35809e-05
-0.00446812
-0.00112165
0.024592
-0.00430183
0.00181198
0.000792015
-0.00141089
0.00319857
4.10575e-05
-0.00158102
-0.0016231
0.000292953
-0.000151971
-0.00213427
0.000531157
-0.00358695
0.00099533
-0.00534315
-3.92105e-05
-0.00228608
0.00318305
-0.000860386
0.00485179
-0.0012225
0.000295289
0.00171484
-0.00397447
0.000880138
-0.000200267
-0.00219197
-0.00105325
0.00376496
0.00115115
0.00104699
0.00603019
0.000487622
-0.00105203
0.000264296
-8.01188e-06
0.0313999
-0.0134368
0.00295122
-0.001728
0.00349113
0.0195785
-0.0184784
-0.000848342
0.00585894
-0.00285577
-0.00130525
0.00462835
-0.00313728
-0.000374844
-0.00615875
0.00050755
-0.00433536
0.000727986
0.00266505
0.000900566
-0.00467799
-0.000396255
0.000927076
0.0045312
-0.00161549
0.00220046
0.00195912
0.00301048
0.00146539
-0.00358153
0.00342782
0.0017262
-0.00107298
0.00308406
-2.97808e-05
-0.00153354
0.0168286
-0.0170545
-0.00339556
0.00554334
-0.00182721
0.000307645
-0.00136812
-0.000450246
0.00338542
-0.00626703
-0.000505553
0.00398293
0.00156721
0.00183183
0.000260152
0.000916258
-0.00531939
0.00409741
0.000296318
-0.00254426
0.00390398
0.00049722
0.00221765
-0.00315332
-0.000799132
0.00324149
-0.000508721
-0.000103649
-0.00565873
0.00289436
-0.00106259
0.00391143
-0.0011519
-0.000663892
0.00226338
0.000926839
0.000237957
-0.00183301
0.00292884
-0.0011746
0.000103139
-0.00147585
-0.00121401
0.000776963
0.0150302
0.00390624
0.00573857
-0.0216642
-0.0017982
-0.0159878
-0.000736063
0.00318427
-0.00556372
0.00267464
-0.000350591
0.00695917
5.87553e-05
-0.00133274
0.00194789
-0.00105738
0.000547175
0.000388043
0.002535
-0.00399757
0.000969523
-0.00284939
0.000639363
0.00236941
-0.000144736
-0.00228899
-0.000641163
2.62802e-05
0.00290619
-0.00159884
0.00255292
-0.00712261
-0.00530343
0.0109389
-0.000246832
-0.00223773
0.000405092
0.0036621
-0.00120344
-0.000310727
-0.00250433
0.000773657
-0.00357454
0.00231379
-0.00254958
0.006541
-0.0018203
-0.00513612
0.00042481
-0.00168572
0.000110959
-0.00235588
0.00388866
-0.00393485
0.00151074
-0.00150188
-0.00195889
6.006e-05
-0.00204869
-0.00101725
0.000120024
0.00541765
0.00016496
-0.00437578
-0.00113309
0.00511535
0.00721772
-0.000984959
-0.00382248
0.00500861
0.000877622
-0.00197604
-0.00291311
-0.00188333
0.000862943
0.00924318
-0.00437753
0.00234209
0.00350977
0.000214517
-0.000735953
0.00309202
-0.000214726
0.00294576
0.00133659
0.00194523
0.000278436
-0.00592448
0.00337565
-5.72971e-06
-0.00549467
-0.000906629
-0.000836995
0.00323415
-0.000340023
0.00141249
0.00215762
0.000332684
0.00100044
0.00220285
0.000281155
0.00416525
-0.00402291
0.000460595
-0.0025491
0.000487552
0.00121117
-0.00440938
-0.000781151
-0.00260892
0.0056967
-0.00299617
-0.000216014
0.00337977
0.00098002
0.000905818
0.0234861
-0.00658309
-0.0128967
-0.000192389
-0.000353914
0.005396
-0.00165563
0.00251383
-0.00326074
-0.000930425
0.00168507
0.00476488
-0.00217752
-0.00028928
0.00428083
-0.000850486
-0.00339488
-8.33223e-05
0.00117573
-0.000258037
-0.00236589
-0.00105969
0.00315328
0.000291829
0.00050362
0.0003871
-0.00498745
0.00174646
-0.000307295
-0.00220125
-0.00352014
0.000561127
0.00143465
-0.00259191
1.0907e-05
-0.00230253
0.000950012
0.00109025
-0.00189393
0.00475223
-0.00217284
-0.000695748
0.00288315
0.000740461
-0.00188635
-0.00318979
0.00471921
0.000413932
0.00343871
0.000356519
0.00676274
-0.00362038
-0.000270685
-0.002572
0.000213679
0.0037128
-0.0035049
0.000639955
0.00395039
0.00135898
-0.00246927
-3.03811e-05
0.00150506
-0.000478153
-0.00347668
-0.00233105
-0.0033986
0.0054665
-0.000605252
-0.00386754
0.00198613
-0.000206482
-0.0171603
0.0161473
0.00587382
-0.00282267
0.00100112
-0.00119877
-0.0027141
7.54436e-05
0.00084614
0.000552315
0.00103653
0.00404758
0.00200366
-0.00133822
0.000840128
0.0010993
-0.00237203
0.000465072
-0.00419438
0.00310741
0.00169739
-0.000780412
-0.00476632
-0.00151164
0.00488016
0.000603705
0.000485493
-0.00329617
0.000606385
0.00393529
-0.00818229
0.00244133
0.00185173
-0.000886476
-0.00240291
-0.000301592
-0.00636612
-0.00444152
0.00725444
0.00262868
0.00301242
-0.00186595
0.000592391
-0.000692466
0.000499223
0.00344005
0.000622166
-0.000129352
-0.00395769
0.0213015
-0.0203177
0.00482099
-0.0046364
0.00484979
0.000536529
-0.000931196
-0.00252297
-0.00137702
0.00165386
0.00286353
-0.00563689
0.00113938
-0.0010972
0.00266065
0.000232451
0.0227961
-0.00052057
-0.00950627
-0.0138551
-0.0044599
0.00268016
-0.00949947
-0.000485435
0.0105704
-0.000727404
0.00418081
0.00120293
0.00354062
0.0014767
0.000755426
-0.00278718
5.1112e-05
-0.00219501
5.93239e-05
0.00306518
-0.0004389
-0.000852127
-0.00174238
-0.0023079
-0.00171059
-0.000437553
0.00397645
0.000646348
0.0159492
-0.0136277
-0.00580003
0.00126717
0.00228248
-0.00680686
0.00334216
-0.00177239
0.00139436
0.000859527
-0.000588133
-0.000945649
0.000173248
-0.00102751
-0.00138286
-0.00271215
-0.00117804
0.00188353
0.00130461
0.00046426
0.00168413
-0.000633346
0.000439407
0.00897642
-0.0018002
0.00279127
-0.00219888
-0.00110679
0.00048054
0.00174782
0.00308576
-0.000159656
0.00171474
-0.00359076
-8.72299e-05
0.000921665
0.00185199
-9.42658e-06
0.00681219
-0.00336611
-0.00193537
-0.00160606
-0.00394819
0.00344312
0.000348747
-0.00313767
-0.00124057
0.00447175
-0.00469003
0.000684239
0.00369285
-0.000917992
-0.0048106
-0.00012748
0.00320408
-0.0122702
-0.00150402
0.0225856
-0.00736362
0.0137209
-0.0117161
-0.0043074
0.00205433
0.00399788
0.000774065
0.00268142
0.00227292
0.00184052
-0.000578829
-0.000665955
-0.00113036
-0.000737437
0.00314438
-0.00229336
-0.000139261
-0.00436499
0.00134892
0.00538532
-0.000808808
-0.00154226
-8.80036e-05
-0.00415814
0.00161508
0.00213987
-0.00589303
-0.000684013
0.00382682
-0.000263984
-0.000553821
0.00114852
0.0051218
-0.00352518
-0.000211849
-0.0034925
0.00603605
-0.00089176
-0.00876588
0.0034443
0.00169457
0.00381709
-0.0011078
-0.00224452
-0.000467105
0.00162464
-0.00271003
-0.000778622
-0.00184935
0.000933984
-0.000231474
0.00101096
-0.000163689
-0.00303938
0.000832086
0.0160177
0.00230433
0.0252733
-0.00943022
-0.00352663
0.00195105
-0.000293879
3.73091e-05
-0.00624046
0.00826733
-0.00132042
-0.00071215
-0.00326264
0.00240553
-0.000624735
-0.00100358
-0.00226899
-1.46363e-05
0.0116928
-0.0066364
-0.00187299
0.0135243
0.00318421
0.0337325
-0.0138827
0.000470495
-0.00124886
0.00344528
0.000256826
-0.00259822
-0.00109633
-0.00425985
0.00153749
0.00259188
0.000132814
0.00613511
-0.000555361
0.000286586
-0.000551241
0.00288986
0.000424939
-0.000131902
1.87914e-05
0.00783578
0.00658744
-0.000646831
-0.00300617
0.00104327
0.00080717
0.00541037
-0.000868877
0.00798002
-0.00174478
0.00207985
-0.000826028
-0.0115713
-0.00726385
-0.00342668
0.00219106
0.00371833
-0.000966122
0.00537067
-0.00272112
-0.000392011
-0.00200502
-0.000613415
0.00103394
0.00155111
0.00326321
0.00156963
0.00282073
0.000190025
0.00199641
-0.00213247
-0.000433424
-0.00462411
0.00147344
-0.000148684
-0.00529837
0.000661104
0.00184861
0.00269536
-0.00545658
0.000926458
-0.0034422
0.0028471
-0.00226018
0.00282328
-0.00668164
0.00149406
0.00177803
0.00847167
0.0140891
-0.00118437
0.000882544
-0.00455073
-0.00155167
-0.00740817
0.0127264
0.00262823
0.00926988
-0.00913558
0.00420968
-0.00476013
-9.62882e-05
0.000456455
-0.00127266
0.00211813
0.000399648
0.00122969
0.00470835
-0.00109959
0.00143459
-0.00415205
0.000647116
-0.000579876
0.0029237
0.000660596
0.00147344
0.00422633
-0.000852415
3.35631e-05
0.00193524
0.00110654
0.000328877
0.00295177
-0.00113178
-0.00040218
0.00086538
0.0021056
-0.000486599
-0.00539568
0.000959757
0.0035466
0.000874077
0.0038567
-0.000709124
-0.00246107
0.00341202
-2.0238e-05
3.19003e-05
0.00313376
-0.000132253
-0.00645081
0.000149756
0.00138562
-0.0241627
0.017768
0.000766252
0.00182491
0.00957787
-0.000652137
0.00553794
-0.00510734
0.000928355
0.00524189
0.00112337
-0.000487115
-0.00866363
0.00498157
0.00145097
0.00231056
-0.00303896
-0.00259846
0.00398383
-0.00378704
0.000492609
-0.000461301
-0.00261724
-0.00034755
-0.00145944
0.00183014
-0.00249021
0.00522033
-0.000694462
-0.00210695
-0.00218241
-0.000985241
-0.00286663
0.004818
-0.00051559
0.0029477
0.000761245
0.000106314
0.00152088
0.000502678
0.000525245
-0.0014778
-0.000857196
0.00150069