/*--------------------------------*- C++ -*----------------------------------*\
| =========                 |                                                 |
| \\      /  F ield         | OpenFOAM: The Open Source CFD Toolbox           |
|  \\    /   O peration     | Version:  2212                                  |
|   \\  /    A nd           | Website:  www.openfoam.com                      |
|    \\/     M anipulation  |                                                 |
\*---------------------------------------------------------------------------*/
FoamFile
{
    version     2.0;
    format      ascii;
    arch        "LSB;label=32;scalar=64";
    class       volVectorField;
    location    "10";
    object      U;
}
// * * * * * * * * * * * * * * * * * * * * * * * * * * * * * * * * * * * * * //

dimensions      [0 1 -1 0 0 0 0];

internalField   nonuniform List<vector> 
77525
(
(6.22334 -2.48744 -3.56403)
(19.95 -6.59097 2.85559)
(7.32 3.2822 -1.53517)
(9.49521 1.78363 4.97144)
(3.33947 -0.408793 -2.48997)
(8.87623 0.785491 7.98793)
(15.6551 -5.17855 3.64148)
(7.03529 0.172154 -3.81297)
(12.9375 -4.59207 -9.70282)
(6.30938 3.77002 -2.89818)
(15.3227 -4.20212 -7.81481)
(5.02512 -0.215473 -0.462134)
(8.54743 -1.01469 -2.55135)
(15.9651 -6.0993 2.51267)
(7.16209 -3.66192 -2.05725)
(11.5829 0.931261 4.35605)
(9.35071 0.00643623 -1.54466)
(9.68052 5.46738 -1.81503)
(-2.49422 -0.853329 -0.838239)
(14.3824 -5.48713 3.58875)
(7.96642 5.6017 -1.55915)
(14.5581 6.02389 0.739442)
(11.6551 -0.357818 3.79003)
(-2.41772 -2.90804 0.340186)
(9.8821 -2.76878 -0.715984)
(18.1193 -4.65866 2.5164)
(13.256 -1.13317 -4.12379)
(6.68231 -0.433032 0.793754)
(3.73893 0.147415 -0.936812)
(4.59745 1.51761 -3.14307)
(3.12519 0.762192 2.29422)
(11.1131 -0.842392 1.47757)
(9.74463 -2.3252 2.20556)
(13.9609 0.103536 -3.52557)
(11.3568 -0.761484 0.65383)
(18.2786 -2.79625 -1.53777)
(6.56859 -0.574062 0.29805)
(13.9661 0.289431 5.68292)
(11.8641 2.77004 -4.71497)
(3.40577 3.82598 0.423185)
(5.80612 -1.59997 0.609166)
(18.3402 1.20104 4.01091)
(4.91086 -2.86363 -0.538066)
(11.5867 -1.95618 4.12141)
(10.1299 -2.72847 3.95676)
(8.65057 6.15342 0.777907)
(15.1927 -2.43376 0.567071)
(15.2447 2.3514 3.14624)
(17.6132 0.583693 3.05852)
(7.39655 -1.72594 -3.64172)
(10.4307 -5.63067 3.35199)
(12.9582 -4.21615 2.812)
(9.12587 -4.03072 -4.61864)
(10.7188 -2.6213 -0.24072)
(18.3095 -6.97709 5.03528)
(12.6551 0.096773 -0.281105)
(5.80469 -1.81274 0.939564)
(6.6807 0.392988 -2.49406)
(13.1794 1.6875 -1.06848)
(11.6361 -1.07017 -1.28048)
(15.7128 -3.95286 -4.85747)
(8.04071 0.21854 2.04866)
(19.8717 -1.7936 5.00484)
(7.199 -2.28781 -1.08811)
(12.6006 0.1381 -0.775462)
(11.6184 0.857675 0.0338112)
(11.9433 2.08967 0.60687)
(1.66542 -6.85541 -1.30983)
(3.33534 3.09783 0.304354)
(3.52218 3.15101 -0.022036)
(9.60201 3.02164 -5.64654)
(8.15305 -1.46602 -4.75002)
(7.59595 -0.715635 -0.0892974)
(13.4508 -1.82309 3.84006)
(4.07528 4.0721 0.207206)
(14.6622 -0.20957 3.91262)
(10.2462 -3.37671 -2.26807)
(6.03178 -4.10557 -1.16137)
(11.0404 2.2506 0.285715)
(10.9211 1.63414 1.26462)
(8.52279 -0.459567 -2.15124)
(5.42479 -1.97098 -1.20638)
(4.2043 -2.08384 -0.499456)
(3.83229 -6.47789 -3.28153)
(20.1572 -1.87445 2.09921)
(15.1415 -1.20617 4.3044)
(8.34128 -2.92595 4.03974)
(9.00922 3.61772 -2.53071)
(9.25864 3.33501 -5.43605)
(4.75002 -3.04976 -1.60165)
(14.7389 0.433303 4.53029)
(14.4062 0.52481 1.5622)
(14.058 -1.06332 4.85848)
(10.1152 -0.125686 -0.0510759)
(9.80602 0.32934 -1.55322)
(7.18065 2.76631 0.500728)
(1.83087 3.57096 -0.487797)
(17.6517 -5.23112 -4.87284)
(11.3762 1.03979 -0.723199)
(10.7047 0.151915 0.351446)
(13.5805 -1.6355 0.452696)
(5.63146 2.17568 -4.12411)
(-3.41378 -0.855236 0.566325)
(0.919179 0.577808 -1.0874)
(6.71517 1.4499 -0.400767)
(4.56289 -2.60743 0.318734)
(3.29837 3.99692 -0.562345)
(11.7262 1.32496 -2.04865)
(3.8437 1.18767 2.07695)
(9.33653 0.945679 5.68686)
(14.2973 1.84594 2.48198)
(9.56336 -2.84202 6.19048)
(9.43449 -0.957678 -0.840234)
(6.89535 -0.548473 2.34531)
(18.8562 -4.03105 1.11186)
(3.68587 3.49914 -0.655148)
(12.3325 2.84524 -6.0897)
(8.8649 1.35741 -4.89375)
(13.0898 2.74543 1.23945)
(13.4503 -2.10085 6.23228)
(7.72004 -2.58057 -1.52542)
(16.1127 -2.44453 -3.17678)
(15.2428 -10.7604 3.6739)
(2.87209 -2.43281 -1.38634)
(-0.356606 -3.0371 -1.22471)
(9.01249 -5.03051 -5.2589)
(16.8986 -1.50913 -9.82572)
(3.99278 3.84895 -0.300874)
(11.4024 2.51299 -0.722645)
(5.86583 -3.06696 0.370717)
(5.08091 1.16986 0.125617)
(6.61495 -2.87237 0.395077)
(4.29511 -1.95105 -0.345777)
(13.4971 0.375524 0.747941)
(3.92416 0.63128 -0.926521)
(10.6094 -0.410899 -6.43858)
(1.01983 4.35966 0.608682)
(10.44 -1.28028 -2.54792)
(3.86136 3.50401 -0.696687)
(8.74767 -0.402152 -1.94592)
(13.3562 -0.255949 2.42356)
(11.1786 -0.931076 4.21195)
(9.47073 0.966424 -3.97188)
(9.30719 2.48853 -2.78252)
(6.70044 -3.65679 -1.48664)
(6.06964 -3.86285 -2.15316)
(12.9967 4.96888 -0.022696)
(13.4084 -1.85012 2.94033)
(6.40101 -0.286965 -0.812474)
(17.9071 -0.979215 2.89941)
(3.46151 -0.813009 -4.69168)
(0.433412 2.93739 1.09983)
(11.0075 -1.0667 -0.795456)
(8.504 0.592415 -4.05962)
(-2.62694 -0.86427 0.0419353)
(12.716 -4.56 4.25053)
(5.57686 -2.58381 1.11438)
(6.72532 -4.34704 -3.67431)
(9.81435 -3.19053 -0.917802)
(8.21448 -3.55242 -1.50047)
(7.1652 -2.45854 -3.28359)
(9.13047 -4.51967 -3.17687)
(7.97721 -3.60349 -2.20405)
(12.5454 1.73366 0.573073)
(-0.684209 -2.07892 -0.794675)
(8.04275 3.6368 -6.02295)
(8.08455 -1.52062 -4.36117)
(2.67652 -1.45745 -4.93777)
(5.48084 0.502615 0.91241)
(7.52922 -4.11892 -0.965853)
(2.00765 3.8142 -0.321337)
(7.39415 0.128734 -4.3043)
(5.72393 -3.68333 -0.208955)
(15.9716 -5.35098 -1.32463)
(21.2156 -0.816958 -4.7116)
(9.02664 5.72542 -0.663407)
(1.25166 -1.0643 -1.22051)
(1.31994 -1.36924 -0.910746)
(5.95574 1.72006 -0.652443)
(4.6158 5.05166 -0.479291)
(18.1994 -2.83757 -2.8792)
(8.35431 -2.12025 -4.12953)
(6.86972 -4.62806 0.419381)
(15.451 -7.91552 -3.377)
(6.38617 -1.11175 1.5691)
(5.52269 1.68459 0.249726)
(9.79172 -3.31432 2.5775)
(7.73358 -2.42632 1.59879)
(7.55475 5.69 -1.64207)
(11.2848 5.79975 -2.09498)
(4.33072 1.1773 1.07344)
(14.57 -1.93948 3.41858)
(12.7405 0.72072 -5.2945)
(6.8979 -0.264845 -4.25676)
(17.1144 -1.8014 -6.37723)
(11.6442 1.45306 -5.02551)
(9.26052 0.950253 -3.48478)
(8.03523 -2.21053 -1.91454)
(14.6065 1.35075 2.90316)
(4.72839 0.950918 -1.87876)
(4.98895 1.59955 -6.14206)
(17.8967 -3.55124 -2.52156)
(10.3311 -4.82158 0.956514)
(8.96699 2.95289 -1.79374)
(9.78877 2.01488 -1.98258)
(5.61141 2.52201 -5.51483)
(2.95177 3.93389 0.183131)
(3.52905 3.45354 0.0156671)
(9.29051 -1.19752 -2.72025)
(4.92256 2.44849 0.724912)
(8.10233 0.0893211 2.70652)
(4.58473 0.45374 1.57885)
(1.45188 -6.33318 -1.06371)
(7.11344 0.647534 0.605336)
(8.41215 5.08335 -1.46956)
(8.12398 -0.242582 -2.01329)
(-1.4974 -3.00683 -0.273288)
(9.78979 5.25877 -0.0106148)
(11.4891 -3.9762 5.15719)
(11.5928 -1.32844 -6.692)
(8.66385 -0.674012 -3.91631)
(9.8726 -3.18192 -0.821441)
(3.93939 4.93447 -0.202439)
(6.9852 1.45467 -2.31929)
(3.91728 0.918917 0.843271)
(3.61178 3.41745 0.457434)
(8.35587 -0.378197 -1.2488)
(9.79505 2.46316 4.18055)
(7.89149 -0.558757 -3.70564)
(5.31804 -3.62888 -3.73888)
(17.859 -0.00220253 2.18553)
(12.1027 3.04291 1.82451)
(6.97044 -0.570134 0.475113)
(2.33738 4.65698 -0.377664)
(12.4068 3.77381 0.830511)
(-2.57839 -1.85696 1.41264)
(0.350645 -1.59407 -1.03244)
(2.32738 -2.11388 -1.16127)
(11.1623 5.47311 -0.258845)
(8.24123 3.54927 -3.65805)
(3.34599 3.08566 -0.208006)
(17.9784 -1.74917 -8.56664)
(19.6712 -1.47521 -6.37541)
(-0.387426 -2.34796 -1.35836)
(13.398 3.84762 2.39607)
(2.49948 -2.21582 -1.22687)
(5.80293 0.655844 -5.59796)
(12.958 1.89319 -5.29452)
(6.06006 1.69309 1.22942)
(3.47917 3.25104 0.389755)
(14.0069 -4.5353 -1.52119)
(8.21378 2.08506 -1.26544)
(6.68029 -2.53377 -0.357482)
(17.2924 2.5041 5.06465)
(10.09 2.39512 -0.648483)
(9.9486 1.49061 1.34121)
(9.2931 -2.42996 1.50102)
(7.85571 0.0690387 0.381883)
(9.33435 -0.928773 -2.02474)
(6.00362 -1.9575 0.817463)
(5.72671 -0.477616 1.22718)
(11.2232 1.16214 0.647957)
(11.9437 1.00424 8.72096)
(8.1018 0.192841 -2.53596)
(14.9734 1.14281 5.03258)
(11.5093 2.24355 5.95124)
(5.43261 -4.56418 -2.35213)
(3.60985 -3.40159 -2.04597)
(7.51705 0.70184 -2.32991)
(6.05798 -2.2995 5.01125)
(18.5842 -5.89913 1.21656)
(16.1352 -3.4792 1.84596)
(15.332 -4.22462 -8.68219)
(6.15401 0.826474 -4.20457)
(10.8318 -2.14247 -4.03858)
(9.75225 -1.38303 -2.31281)
(16.167 -0.810668 -9.34646)
(11.8506 -2.4235 -3.39249)
(5.75745 -2.38996 -4.9979)
(11.6651 1.76503 1.0756)
(10.6899 -2.63157 1.6761)
(5.25966 -0.333462 -1.36578)
(12.2343 -0.540486 1.58353)
(7.33735 1.16026 -0.380041)
(11.7073 -0.680803 -5.01381)
(14.385 -1.56588 -4.29702)
(10.6353 -2.82886 -1.07072)
(6.19557 0.123014 -3.34542)
(-2.59941 -0.811283 -0.573632)
(8.96803 -5.6485 1.91669)
(9.29641 -0.71427 -2.85878)
(19.8682 -1.10757 4.91106)
(7.62178 1.64636 0.0569959)
(11.4765 5.72772 -6.76773)
(7.14581 0.663347 1.07878)
(6.79956 0.30204 -2.2134)
(9.39438 6.80469 6.31195)
(2.94292 3.35721 -0.727012)
(9.60134 -4.98368 -0.41572)
(13.8789 -9.66719 1.68741)
(0.591339 -5.65954 -1.59772)
(4.07753 -4.47542 -2.92642)
(8.29183 -2.00165 1.34054)
(4.53898 0.104035 0.926895)
(5.52095 -0.22327 0.11914)
(7.71061 0.0827621 -4.1469)
(4.45803 0.889767 -0.722995)
(18.8289 -1.39306 -1.52149)
(10.5805 -0.538902 -2.31825)
(8.42179 2.12311 -1.05057)
(9.33779 2.8806 4.78569)
(11.2468 1.53485 1.17633)
(10.0496 1.17616 1.43572)
(14.4366 2.97507 3.6613)
(8.62892 2.97048 -2.75407)
(7.92787 3.2095 -1.87304)
(6.56039 -5.99953 -1.98588)
(7.33463 -5.70132 -1.54731)
(15.4584 -2.12398 6.0669)
(9.84284 -1.9638 4.50849)
(9.04309 -7.31971 1.19495)
(11.2877 -5.72638 1.95756)
(2.51754 -2.83556 0.482972)
(2.46067 0.689686 -0.11293)
(7.38986 -2.28368 1.36808)
(8.80793 -3.66506 -0.800718)
(5.06279 1.47213 1.49272)
(11.7188 1.43308 3.8899)
(4.75136 -1.58334 -3.85871)
(7.79518 1.68489 -3.37492)
(11.5714 3.53594 -2.96085)
(14.8103 -3.1001 -3.22098)
(9.76553 -0.395545 -4.35958)
(6.0671 1.6915 -0.730305)
(5.47461 -3.55896 -1.72038)
(6.20886 -4.7174 -1.0412)
(11.8611 0.227935 -5.94529)
(10.3756 -1.87656 -6.38178)
(4.87341 0.0618945 -1.4824)
(3.71046 1.98717 -1.42764)
(7.36162 0.597883 -3.1514)
(0.854797 0.0171726 -1.48056)
(1.48548 -0.951895 1.41182)
(10.4557 -1.89697 1.17444)
(5.06559 1.70033 0.615424)
(7.4803 3.32385 0.266218)
(8.12229 1.02245 -1.05801)
(11.7057 1.47163 -8.43584)
(11.454 0.69262 4.57068)
(5.32575 -5.96657 -3.21371)
(6.79527 6.19599 -0.355528)
(2.2398 -1.20296 -1.44136)
(14.8613 -6.39839 -4.29687)
(12.2054 2.1033 4.90421)
(9.46587 -0.940101 -2.66895)
(6.40235 0.0403398 0.662476)
(6.23653 -0.898808 -3.95363)
(12.3331 9.66183 1.85798)
(7.58816 -1.1815 -0.0730308)
(3.84626 3.83917 0.0137953)
(4.54841 -4.31409 0.126411)
(7.85239 0.370923 -4.67935)
(6.55615 -0.325705 -0.445776)
(11.573 -3.11772 2.83208)
(3.00224 1.37394 0.1317)
(7.83233 -1.58181 -3.83178)
(9.17492 -0.23733 -4.09045)
(10.6202 0.312219 1.42842)
(12.5657 0.92407 2.7548)
(15.2503 -5.5376 3.64257)
(10.3529 0.208458 1.20259)
(16.3104 -5.96151 9.12633)
(6.24994 4.74062 -0.915187)
(9.19237 0.00315757 -3.16261)
(9.45636 0.607686 1.87618)
(15.4974 -1.36851 -3.33322)
(14.5821 -3.24554 -1.65585)
(12.6769 -2.77713 -3.88224)
(9.11066 -1.85506 -0.679365)
(9.92961 -1.28546 -0.856849)
(10.8071 6.36111 -4.22241)
(14.1713 -5.81888 -4.66598)
(8.63298 -1.13704 -5.16247)
(11.7143 -3.77959 2.5299)
(8.28723 -0.913428 -2.50349)
(3.99242 -4.37674 -1.37528)
(10.6574 -0.940353 -3.4483)
(6.76283 3.81238 -2.8229)
(17.6144 2.15087 1.20453)
(20.6994 0.467328 3.96369)
(7.61119 -3.56773 -2.46655)
(7.77217 0.857095 -1.08428)
(9.66252 -1.90875 -0.317453)
(10.6082 5.82251 -0.830471)
(23.3071 -0.532627 1.22188)
(19.7925 -0.749795 2.38074)
(10.1797 2.01976 0.734846)
(4.57548 2.21531 -0.348864)
(2.84958 1.87114 0.585927)
(13.1944 -2.10061 2.186)
(8.3901 3.76696 6.11116)
(5.36935 2.07821 -3.22438)
(15.5547 1.9403 -8.67367)
(10.9105 -0.870161 4.9015)
(6.62331 0.754291 -0.222728)
(5.13824 3.48507 -3.9922)
(3.5015 1.89952 -4.23236)
(7.09323 2.4388 -1.13048)
(7.49999 2.36387 -0.951462)
(11.0623 -3.98817 -2.61466)
(7.64844 -2.4848 1.77669)
(13.881 -6.44201 -6.15153)
(16.9825 2.65591 -5.53932)
(8.75646 1.37528 -0.851324)
(14.6639 -2.26032 -2.63517)
(9.58292 6.01018 5.96)
(16.8166 -1.31765 -5.46176)
(5.00305 2.84715 -0.00771806)
(3.64065 -3.03164 1.05293)
(9.31677 -1.82935 -1.05649)
(13.0802 1.26924 -4.72421)
(12.0776 0.338936 -4.73064)
(18.177 0.38197 -4.05077)
(15.3062 0.333177 1.27861)
(3.33724 -2.57242 -1.34358)
(-0.660385 -1.9351 -0.776762)
(10.6266 1.66605 -2.59672)
(8.99977 2.62689 -4.32871)
(0.526543 -1.11283 -1.294)
(3.96845 -4.90246 -1.53333)
(6.63475 3.17464 -0.778541)
(3.9627 -1.35293 -1.1759)
(16.1366 -8.15251 -4.28307)
(15.1927 -0.639444 3.90805)
(5.94179 1.19789 -0.630516)
(10.0758 1.82068 -2.06268)
(2.53812 2.04662 0.657655)
(11.0254 1.31664 -6.00179)
(4.38727 2.29697 -0.976245)
(3.32162 1.1156 -0.545314)
(12.8068 -6.603 -6.56624)
(7.28261 0.781055 0.37028)
(4.67021 3.71091 2.06082)
(2.19009 1.13265 -0.580165)
(16.0101 -5.19422 -5.94688)
(18.6598 -4.21524 -6.4336)
(11.5104 -0.0333926 1.27539)
(7.18387 0.272555 -0.11008)
(9.03506 -0.22174 -0.851389)
(16.2005 -0.107084 -2.63142)
(5.79288 1.4158 0.562068)
(10.5821 4.02226 -2.23109)
(10.5276 0.855785 1.63203)
(8.52661 3.41339 -1.57446)
(6.66288 -3.00314 -0.177515)
(9.3954 -4.00251 -3.27709)
(14.1925 -0.464679 2.72045)
(8.05197 2.18966 0.214432)
(5.00081 -3.33746 -1.69609)
(7.71971 -1.0962 1.471)
(11.6458 0.0470841 2.65589)
(16.4865 -1.2806 -5.45376)
(3.07808 1.65183 1.80858)
(5.66252 0.961472 0.971877)
(17.0591 0.431865 -3.52322)
(12.1403 -3.25331 1.86415)
(7.77287 -3.35157 -1.021)
(7.60955 -0.944025 -2.33379)
(4.2581 4.13664 0.168864)
(12.6345 -0.437794 0.224318)
(11.2879 1.14862 0.146964)
(17.4487 0.402371 5.48417)
(-0.359001 1.5632 1.19208)
(4.48072 0.504155 -3.63722)
(9.83352 -2.06912 -3.77571)
(15.9886 2.01988 -7.11423)
(6.03137 -3.48761 0.689862)
(1.77646 -0.908104 2.81679)
(8.37261 -3.56836 1.40798)
(7.39191 -2.7877 1.32877)
(12.6869 -2.59332 4.9219)
(10.8235 -2.7822 4.20824)
(4.21634 -1.52395 -0.693849)
(5.0018 -1.56426 -3.00624)
(8.93725 -4.61651 2.76959)
(14.6409 -1.64937 -2.80299)
(7.37884 -1.63626 -3.44944)
(13.7595 -1.94426 2.12379)
(11.7032 -5.07743 5.39234)
(7.86489 0.0353844 0.413148)
(6.63202 2.47476 -0.269522)
(7.16463 1.25401 1.67624)
(-0.969728 0.613879 1.0558)
(7.69146 6.54859 6.16035)
(5.38764 -0.281658 -2.44116)
(11.4192 2.34024 -0.432213)
(6.68741 0.327717 0.854287)
(15.22 -5.73925 -8.36532)
(16.2589 -1.94694 -1.71858)
(17.2996 4.3591 -7.36171)
(13.1118 4.08027 -9.17066)
(2.85544 4.03956 0.0417751)
(3.88909 3.99861 -0.0101385)
(5.4097 -1.84982 -0.302218)
(16.7469 -4.31342 -6.43244)
(5.16367 5.04936 -1.89665)
(5.4418 0.399547 -0.1793)
(9.92956 1.62032 -3.28144)
(9.33395 -5.52189 -3.84717)
(9.18284 -6.086 -3.4445)
(10.0182 -2.14193 -4.68494)
(9.63146 -1.57401 1.70617)
(7.31246 1.83978 -3.1321)
(8.09811 3.97433 -3.66771)
(4.12888 -1.65103 -0.86908)
(1.18882 -4.54597 -1.04555)
(8.35663 -2.00252 2.38526)
(5.39452 -0.574329 -0.525868)
(13.5638 -1.74953 6.06044)
(14.5651 -2.37578 -3.10392)
(4.02057 2.23053 -0.429596)
(3.77089 3.74022 -0.605666)
(7.81192 0.832903 2.06193)
(6.92842 -0.385142 -1.94383)
(12.1222 0.597651 1.20092)
(8.41137 -2.47189 1.09666)
(15.2906 0.601256 3.90967)
(16.8222 1.6931 5.63863)
(20.8995 -1.00879 -1.16647)
(20.5808 -1.10223 0.879551)
(7.71801 -2.96961 -4.15934)
(9.11858 -0.991305 -0.443626)
(9.0381 -0.0503439 -1.75752)
(8.07193 -0.651774 -2.08122)
(9.20583 3.22678 -3.24953)
(6.72213 3.9316 -4.34148)
(7.20632 5.31562 -3.33153)
(6.51123 0.650074 1.02441)
(5.66132 -3.13741 0.539617)
(5.9691 3.36949 -1.62405)
(10.3839 0.798437 0.183264)
(17.5306 -1.29333 6.24303)
(10.5183 -0.400898 6.08441)
(10.7452 0.853175 -1.35104)
(13.4482 -1.23573 -5.60901)
(4.93043 -2.33166 -2.34751)
(4.15976 -2.61337 -1.44236)
(9.13769 -3.7726 -2.34503)
(3.92165 1.83598 -0.133545)
(2.71044 3.76598 -0.657526)
(3.8164 0.619388 -1.24329)
(10.0664 0.291148 0.062093)
(10.0006 -2.26939 -5.73155)
(12.0976 -2.37358 5.33964)
(8.27595 0.970657 -0.165564)
(8.52974 1.5241 -0.935415)
(10.4053 3.61377 -4.59886)
(5.63674 -0.00195117 -2.00454)
(9.89376 10.5969 0.0647451)
(16.0075 -4.51524 -6.35409)
(3.89765 1.30259 -0.290439)
(10.5166 1.62773 2.41878)
(2.74611 1.40881 1.03242)
(6.83366 -0.439054 -0.852244)
(5.55906 -6.1662 1.45259)
(8.73717 6.10792 -1.51871)
(7.77074 -4.258 -3.43344)
(14.3717 2.48207 2.84487)
(16.9987 -1.09614 5.06095)
(16.9878 -0.398089 3.74612)
(14.2093 -4.89229 4.46063)
(13.1791 -7.5066 0.704547)
(8.02191 -0.91642 1.12617)
(3.79598 -1.16427 -0.757989)
(18.6223 -0.350914 -6.04118)
(15.2148 1.39242 -7.55656)
(6.80878 4.33882 -1.18061)
(5.11917 3.85386 -0.0691726)
(6.92379 0.466128 -3.7752)
(8.75075 -0.957787 -1.68193)
(0.878688 -0.701814 -0.0305869)
(14.1271 2.94949 2.68631)
(18.9191 -0.314817 -6.54539)
(9.64586 -4.31194 -3.27991)
(9.04678 11.8866 0.128852)
(7.56859 0.880795 1.16185)
(16.4425 -4.02588 -1.44916)
(9.09269 -1.80018 1.87574)
(2.99863 3.86363 0.435354)
(5.71452 -1.52229 0.579101)
(14.1591 4.11954 -2.27032)
(8.29927 0.133322 -0.586313)
(10.15 -2.01218 -0.474082)
(16.2093 -7.36632 -4.58843)
(5.10639 -5.70477 -2.39948)
(13.0452 -3.0934 3.63243)
(8.10099 0.0772453 -4.5531)
(7.57763 0.0428568 -0.339383)
(8.27538 3.07368 -4.65869)
(17.2002 -1.08462 2.10063)
(6.50134 2.22279 -1.3546)
(4.05537 -0.205367 0.11547)
(7.45179 -2.66768 -0.237816)
(19.8542 -2.1386 3.98066)
(3.58185 3.08846 0.188632)
(7.72118 0.897286 -0.465818)
(16.4629 -3.25424 1.0839)
(6.63245 -4.83778 -2.74156)
(11.7782 -1.54091 -1.22998)
(12.5602 -5.30034 1.03421)
(16.3391 -2.19758 -8.06429)
(6.77932 1.54218 0.909686)
(19.0851 -5.42617 1.3349)
(19.1276 1.5405 3.82581)
(12.2471 -0.00537859 -4.27626)
(9.61721 -2.52756 -4.33543)
(7.35341 2.72113 0.998081)
(4.85776 1.20366 0.884092)
(4.99582 0.950735 1.90307)
(8.42694 -4.24163 -0.367644)
(13.3066 2.10233 -7.18343)
(5.40998 3.24459 -1.39936)
(8.16374 4.19272 -2.21537)
(13.7129 -2.46472 -3.35511)
(14.6499 -2.7906 -4.28719)
(4.32106 3.1367 -0.0823201)
(4.11623 0.837217 -3.58294)
(19.6808 0.0830021 3.61638)
(12.9802 2.68216 -5.71375)
(9.79861 -2.14628 -1.03662)
(5.83539 -1.04615 -1.86241)
(5.22375 -3.69787 -0.134652)
(5.76665 -4.95644 -2.11792)
(3.1599 -4.0021 -1.87384)
(10.2567 -0.0533202 2.37182)
(2.76552 -4.21234 -1.88448)
(13.0776 7.25961 -0.0609282)
(10.1454 -0.57079 3.16701)
(6.92657 -2.79546 0.839601)
(2.05975 1.19713 -0.162114)
(6.76461 2.96838 -0.628177)
(6.09452 3.61806 -1.89143)
(7.69352 -2.91659 2.21077)
(7.46743 -2.67466 0.211754)
(7.6095 1.57723 -0.350758)
(7.07148 2.66777 -1.24475)
(14.9689 1.63415 3.06751)
(11.3677 -2.3188 0.587523)
(10.9081 -0.960665 0.877691)
(10.8151 5.69278 -5.57507)
(18.7585 -4.60781 -4.28464)
(8.42925 -1.96317 -2.67948)
(7.99189 -1.63748 -2.44484)
(4.85227 0.94405 -0.11054)
(2.81759 -3.06043 0.784087)
(8.17727 -1.05962 -5.17601)
(5.39413 -0.728074 -0.687561)
(5.23963 -0.119165 1.10227)
(10.7377 -2.51593 3.00958)
(8.4517 -0.0313317 -1.99676)
(8.54562 -0.674193 -1.44991)
(20.5864 -0.680506 3.03998)
(21.976 -1.89405 1.23647)
(13.1659 -2.87846 -6.69394)
(14.657 -1.72457 -7.59378)
(8.16085 4.06297 -4.54452)
(10.4901 -0.113745 -3.4768)
(17.0921 -3.70325 2.55188)
(6.42332 -2.62516 -4.51416)
(17.5275 -7.76542 1.52908)
(10.8276 -1.41198 -0.956478)
(8.93403 3.60959 -3.64137)
(7.91237 4.13434 -1.88303)
(8.93256 -2.16499 -1.99863)
(11.4411 2.59133 1.28294)
(7.71074 3.91323 -1.57558)
(7.00064 -4.74101 -2.29609)
(7.99872 -0.829412 -2.33389)
(8.44761 -0.364243 -0.840363)
(4.45831 -4.51885 -1.2141)
(3.50652 1.59167 -0.518472)
(8.42146 1.02646 -4.34707)
(6.12757 -0.943616 0.862287)
(13.2097 5.2133 -1.79842)
(12.6952 -0.688602 -4.69386)
(8.95898 1.46656 -1.73637)
(5.77398 1.45634 -6.79504)
(12.8298 0.618728 -5.95892)
(2.37481 -6.03071 -0.741928)
(4.33902 -1.64198 1.15634)
(8.68568 -1.64138 -1.75726)
(6.46286 1.75377 -2.15956)
(3.79208 4.11445 -0.445101)
(18.7905 -1.85671 0.444921)
(3.47443 6.54952 -0.125319)
(14.6905 -0.503435 -5.29841)
(-2.96162 0.50785 0.529179)
(13.2696 -1.38392 3.51285)
(5.44006 1.93333 0.216861)
(3.47016 0.87026 0.735886)
(3.6076 -1.0489 -0.340237)
(12.1761 -4.12712 -1.94718)
(8.62327 3.79205 -0.917448)
(-2.37771 2.25948 0.0694234)
(-0.844458 0.0961737 0.192839)
(9.65908 0.48288 -1.34855)
(10.3962 -1.87049 -0.653942)
(6.10799 2.13281 -1.00342)
(10.0521 0.45997 2.45215)
(7.74727 -5.20079 -1.20747)
(7.58062 -4.57333 3.29273)
(2.7001 -6.46963 -1.41321)
(7.89909 3.60156 -2.83274)
(6.89424 3.13787 0.390867)
(12.1224 -2.94571 -0.0704914)
(5.66131 3.52896 -2.23567)
(5.24444 3.86057 -1.76677)
(16.9947 -5.34067 4.73704)
(13.833 -0.925446 -3.60671)
(3.94069 3.96806 -0.339218)
(5.87054 -0.660372 1.133)
(12.7606 -3.82085 -5.64828)
(3.1256 1.5242 0.793039)
(13.1272 -8.49745 2.49528)
(11.7821 -3.42254 -5.21063)
(11.8928 -3.34833 -2.1216)
(7.91499 1.74187 0.794165)
(1.09489 -2.30556 -1.07953)
(10.1221 0.604934 1.61118)
(6.79624 3.57417 -1.53774)
(6.31589 -1.46401 -1.49706)
(4.02248 2.75231 -0.897024)
(3.62332 1.52945 0.10141)
(4.7153 -1.35282 -4.12792)
(4.48465 3.11914 -0.667175)
(10.5657 -3.24496 -5.52666)
(6.34402 -1.83755 -2.60443)
(14.4922 -2.58848 -4.16715)
(16.3841 -5.21191 -4.55134)
(3.45069 1.52693 0.504917)
(14.8023 -1.34455 -3.03226)
(17.1118 -4.67059 -3.56812)
(9.20021 -0.153272 -0.817283)
(14.641 -2.36514 5.09281)
(7.13458 -0.898986 0.510235)
(10.434 -2.76998 1.12349)
(11.9737 -4.16339 -3.25382)
(12.85 -0.481555 1.41787)
(17.9796 -1.47788 5.33227)
(7.30221 2.89577 -2.88184)
(6.36257 3.13445 -1.76012)
(2.99749 3.77599 -0.643121)
(11.157 -4.44424 -5.86637)
(5.13412 2.68523 -0.154002)
(4.37866 2.79215 -0.361872)
(10.051 -0.508028 -3.56281)
(5.18738 3.94875 -0.0596539)
(18.5264 -3.76673 -1.14187)
(18.1586 -4.07504 -0.371461)
(5.32071 0.540042 0.256736)
(4.80882 0.398184 -0.0678343)
(5.01932 2.58468 1.8106)
(3.36236 4.59208 0.570398)
(10.5982 -0.15994 5.70036)
(12.3783 -11.4773 0.52612)
(7.4251 2.02788 -0.573602)
(4.88856 -2.17027 -3.13876)
(15.4577 -1.60069 -2.72468)
(16.3211 -2.74365 -2.22394)
(5.8031 0.269205 -1.72965)
(8.9808 1.57571 -4.62273)
(4.76646 -3.31802 -2.64134)
(6.64456 1.47278 1.68127)
(8.39489 -0.274853 1.98204)
(9.94014 1.21811 -4.29976)
(5.94745 2.58894 -0.321764)
(6.553 0.588882 0.697857)
(6.52714 2.00776 0.564923)
(5.93558 -3.44347 -1.54808)
(4.63371 -1.57722 -3.50821)
(10.3772 -3.59383 -2.96683)
(11.3294 -1.50034 -5.80727)
(14.2662 -1.3083 6.24517)
(6.22442 -3.11535 -1.53133)
(5.13296 -3.50245 -2.58875)
(8.35115 -4.54706 -3.14297)
(4.10053 0.920016 -2.4934)
(4.8582 1.15547 -2.16719)
(3.52171 -0.839013 2.53258)
(8.05928 -0.972148 1.30967)
(4.32283 -3.02061 0.177842)
(6.72413 0.870193 1.27589)
(6.71831 3.71329 -2.08857)
(6.28673 -1.18117 -0.885366)
(15.8838 -2.70046 -7.66499)
(8.87276 -2.57985 -1.6447)
(10.6576 3.88222 0.158142)
(8.98093 3.43787 -4.158)
(8.19989 -2.1904 -2.28364)
(4.49344 0.132261 -0.800464)
(17.7774 -1.67546 -5.45049)
(16.5917 -3.52888 2.06547)
(12.368 -3.54037 2.51089)
(10.7614 -1.0913 1.88061)
(16.1172 -1.6192 6.45174)
(18.8564 -5.14808 2.88752)
(15.2536 2.1413 -2.43772)
(9.30262 -0.866137 -2.02938)
(6.00053 -0.61955 2.38564)
(4.61499 -1.59335 0.583423)
(6.91028 -1.48766 0.0225832)
(7.00009 -0.778176 1.4347)
(10.866 -1.8061 -0.373675)
(9.69649 -3.59717 1.21878)
(9.82086 -5.20886 3.37781)
(6.29452 -5.11685 -3.03961)
(9.80863 -2.15156 -2.89492)
(3.39958 0.783926 0.397797)
(2.78128 3.20303 0.80514)
(4.51143 4.20447 0.611552)
(15.2049 -1.61323 4.00778)
(0.515253 -2.84308 -0.647245)
(16.9384 -0.847219 4.3812)
(12.0563 5.17571 -4.30051)
(-0.607401 -3.6296 -0.948973)
(0.597374 -0.823392 -0.960154)
(12.5038 -4.38176 -7.3274)
(7.19725 -3.50668 1.06933)
(8.50499 0.48574 1.69439)
(17.6855 -4.78499 5.20121)
(16.1586 -4.71772 5.91104)
(4.71425 2.94193 -0.00132009)
(10.385 -2.4606 -1.70103)
(11.852 5.18491 1.58481)
(13.3032 -0.0380043 -4.46206)
(7.13556 -4.09734 -3.08335)
(3.66458 -3.1962 -2.80035)
(15.2168 2.39148 -6.2039)
(8.26634 1.46156 -5.3184)
(5.25257 -1.04372 0.879667)
(7.98871 0.564283 -4.72465)
(20.06 0.179908 0.66253)
(19.9831 -1.67013 2.16034)
(3.62842 2.52317 -0.370872)
(0.341537 1.99938 1.5348)
(11.232 7.61117 -2.67339)
(6.216 4.50255 -1.95652)
(8.23291 -2.69429 4.79315)
(-0.441824 -3.5527 -0.49257)
(6.07239 0.267056 1.56609)
(9.19298 -0.981827 1.13784)
(7.13549 1.46506 -0.122898)
(11.5235 -2.50305 4.67823)
(6.29398 -1.49702 -3.24736)
(14 -2.4217 -5.56306)
(6.58195 -4.31155 -3.15508)
(9.51003 2.51379 3.11144)
(11.5544 -4.16931 -3.85382)
(3.27051 3.13615 0.395662)
(5.92379 3.91121 0.425785)
(7.73274 0.0705499 -0.626492)
(4.13735 -0.760612 -3.19362)
(12.7079 -4.73409 3.97262)
(18.8664 -0.312253 -8.16706)
(14.9679 0.275603 -7.96804)
(8.54795 -3.23569 -1.36347)
(9.18771 -2.40767 -0.903146)
(9.99807 0.972684 0.515026)
(9.73106 5.04021 -0.984251)
(10.5178 5.12214 -0.0860987)
(3.85909 -3.0745 -1.25459)
(17.0674 -2.8222 -5.59357)
(17.6251 -2.58175 -4.4034)
(1.61054 -5.14821 -1.24007)
(8.67122 -1.58054 -1.63341)
(2.39092 3.65298 -0.129293)
(4.3768 -2.84189 -2.42161)
(2.76376 1.06774 0.206076)
(4.56853 4.13561 0.452876)
(7.6729 0.340735 -1.31509)
(15.4969 -3.94646 -5.14301)
(14.6007 1.58922 5.17516)
(6.43688 6.39029 -1.93439)
(1.65337 3.21129 0.294974)
(8.01557 2.35975 -0.262659)
(7.33592 2.13152 -0.520229)
(11.7151 7.71132 -5.80435)
(15.0225 -2.75185 -2.60755)
(12.7422 -0.461888 -5.70502)
(15.0726 -2.02286 -6.11285)
(4.80862 2.24943 -0.820258)
(4.71067 4.4833 -0.0413803)
(0.61679 -2.27732 -0.159496)
(1.87245 -1.96202 -0.197936)
(-1.18625 -0.10347 0.875137)
(8.74923 -4.75866 0.917219)
(9.07486 2.95765 -5.63494)
(8.31327 1.39938 -5.1957)
(4.03378 2.56091 -1.11569)
(3.52361 2.9246 -0.662723)
(8.74845 2.25082 -5.08059)
(15.2911 2.87123 -5.86767)
(6.01181 -1.29396 1.39481)
(13.8098 2.012 -5.12435)
(12.9525 1.93527 -4.84015)
(13.7582 7.74707 -3.53749)
(7.9361 -4.75027 -0.720312)
(10.1569 -1.62381 -0.980686)
(8.04399 0.107619 1.73856)
(8.05537 -2.13722 -3.37508)
(10.6105 6.62984 -5.61661)
(5.96295 -1.79793 -0.573313)
(6.01948 1.87686 1.51907)
(6.1357 2.21948 1.41189)
(7.08009 -0.0724711 2.21418)
(8.24025 -0.720604 -1.40577)
(9.97435 5.16844 -3.61992)
(16.197 -0.556142 -8.52613)
(14.9243 -2.14929 5.64295)
(13.6444 -4.41238 5.52489)
(7.22952 -4.27518 -3.20212)
(1.93077 3.50995 -0.0311469)
(9.51812 -3.79687 -4.87696)
(12.4641 -3.91573 9.02014)
(11.3787 -4.42129 -5.38217)
(16.3851 1.16427 -7.0694)
(16.4732 1.97761 -6.68097)
(10.9284 -1.60088 0.105635)
(12.8468 -2.15207 -0.409875)
(20.468 4.18053 7.83127)
(12.4689 0.0859923 3.26241)
(17.2285 -5.33904 0.825008)
(9.3193 0.482438 -1.05521)
(9.09189 1.80606 -0.531381)
(17.7248 1.92978 -6.0533)
(9.2691 -1.12468 -1.64847)
(11.7788 5.46492 2.34256)
(11.708 -0.156797 1.09016)
(11.9712 -2.62028 4.34292)
(17.8933 -0.15908 3.55583)
(3.59928 2.13871 -1.7615)
(21.1445 -0.360392 1.23031)
(8.65753 2.58107 -5.12803)
(15.4493 -1.81612 5.82841)
(14.8302 -0.115355 2.06584)
(17.8492 2.41014 3.77326)
(10.7557 1.66159 -4.90199)
(8.10504 3.41492 -0.790033)
(8.18103 -1.85768 0.0175318)
(22.3029 -1.29116 0.200086)
(12.8758 -0.565812 1.67937)
(9.92153 3.09114 3.61324)
(4.3214 -0.303278 -2.72974)
(11.9534 7.57889 -3.66174)
(11.6361 -0.328349 4.8841)
(14.6225 -3.75216 -7.61148)
(10.5335 3.08069 0.42773)
(8.06781 1.79213 -4.85202)
(8.85741 -1.19984 -2.13762)
(21.2994 -0.280377 3.09795)
(8.30914 -1.86397 -3.98966)
(9.78233 -2.88206 -4.59671)
(8.27022 0.863454 0.268211)
(7.63686 -4.17777 -1.70563)
(-1.316 0.51591 0.143991)
(6.84211 -2.87078 -0.186906)
(18.4434 -2.08828 -7.80184)
(4.50068 -2.94355 -1.26717)
(3.18383 2.70178 -0.0946157)
(5.43867 -1.86076 -0.405261)
(14.0472 6.88309 -5.43699)
(17.9165 -0.748065 -7.77363)
(12.1204 0.131255 -5.91119)
(15.5867 2.02637 -4.37518)
(16.5439 -4.77525 -4.38867)
(15.5781 -0.444515 5.36927)
(8.20096 0.46298 1.43998)
(0.443203 0.985089 1.8073)
(4.88331 2.94094 0.434884)
(10.8613 -2.75893 -2.35867)
(7.46451 2.93184 0.836322)
(8.1833 2.43487 1.62007)
(7.19524 -0.448851 1.21531)
(3.07278 -0.212816 -2.07034)
(6.58433 3.72647 -0.348699)
(1.83876 -0.162995 -0.313912)
(-0.4995 -0.18128 -0.257549)
(6.65543 2.61742 -2.06322)
(8.80163 2.15784 0.989503)
(15.9172 5.22686 -0.849222)
(0.14541 -3.26291 -1.77953)
(1.03097 -2.48518 -1.50615)
(8.82562 1.23303 2.21048)
(3.79327 2.0218 0.462812)
(1.83845 2.18621 -0.356308)
(14.6837 -1.271 -4.46319)
(8.91543 -0.627801 -0.127485)
(15.2944 -1.88327 -3.6536)
(5.06893 0.552665 -2.20101)
(6.69088 -0.00380625 -1.0937)
(8.34816 -0.115973 -6.10376)
(2.78665 -2.3575 -0.267896)
(6.42264 -2.90478 -3.17143)
(10.3404 3.44647 2.10112)
(9.33308 3.40422 2.76759)
(6.07642 -0.686026 -0.32549)
(6.77395 -5.65786 -1.5651)
(11.42 -1.94039 -1.46371)
(12.7503 -1.06554 -8.61404)
(15.1309 -2.57676 4.09504)
(11.276 0.45303 2.4544)
(18.4788 -3.24712 -5.21251)
(10.1288 -2.85565 2.53426)
(9.06579 -1.13323 2.62595)
(6.29576 0.257588 -0.0829566)
(9.61234 1.54405 -1.00157)
(12.8885 -2.45909 0.529806)
(12.3247 5.03264 -3.79495)
(14.7694 2.4851 -7.18209)
(13.9549 -4.78272 4.86808)
(19.2642 3.1674 1.92227)
(17.9369 3.07485 -7.09327)
(9.05986 3.39142 4.44971)
(4.59068 -0.0130979 0.665094)
(6.56915 -0.0087557 -3.36408)
(7.68526 0.114662 -4.00045)
(14.1382 0.103996 2.80752)
(10.9112 2.58563 6.17927)
(13.8512 1.79988 6.87179)
(9.30741 -0.704535 -0.836691)
(6.35968 3.73404 -0.862455)
(9.58241 1.8445 1.02003)
(6.0126 0.396355 -0.041845)
(8.85559 -3.72843 -0.385254)
(5.92428 3.8451 -4.47917)
(9.14894 1.99959 1.01845)
(17.4187 -5.18563 -2.08569)
(9.17437 -5.41754 -0.497959)
(9.44036 4.7524 3.27357)
(12.0318 0.220746 1.92784)
(22.2468 -1.14536 -3.46945)
(13.0709 -8.12843 0.00264633)
(17.2819 -7.94549 -2.78779)
(9.10212 -1.20437 2.0951)
(10.0422 -2.9561 1.74048)
(2.18218 -3.21562 -1.06109)
(1.83857 -4.2652 -0.867549)
(6.86609 0.799332 1.84229)
(7.88144 0.037781 2.24783)
(10.6658 0.373207 1.15075)
(9.63277 1.71137 0.717674)
(19.4839 -8.38021 -0.0775273)
(8.70947 -0.140246 -0.58666)
(3.49952 -3.76178 0.769469)
(7.14401 -1.21931 -2.6128)
(4.59696 1.05805 1.07403)
(4.28833 1.18429 0.266764)
(6.19375 -1.03805 -1.90384)
(5.46374 0.184711 -1.25922)