/*--------------------------------*- C++ -*----------------------------------*\
| =========                 |                                                 |
| \\      /  F ield         | OpenFOAM: The Open Source CFD Toolbox           |
|  \\    /   O peration     | Version:  2212                                  |
|   \\  /    A nd           | Website:  www.openfoam.com                      |
|    \\/     M anipulation  |                                                 |
\*---------------------------------------------------------------------------*/
FoamFile
{
    version     2.0;
    format      ascii;
    arch        "LSB;label=32;scalar=64";
    class       volScalarField;
    location    "10";
    object      epsilon;
}
// * * * * * * * * * * * * * * * * * * * * * * * * * * * * * * * * * * * * * //

dimensions      [0 2 -3 0 0 0 0];

internalField   nonuniform List<scalar> 
76930
(
276.259
301.558
208.582
153.977
220.229
283.273
111.859
146.6
241.196
115.711
123.921
373.922
116.477
478.138
571.164
689.683
500.851
457.242
575.288
162.622
406.152
253.571
153.305
155.605
145.262
132.083
1009.03
271.366
438.09
512.402
113.363
193.434
116.345
176.941
191.681
80.8624
170.621
418.16
319.801
780.505
558.309
212.531
187.244
258.982
593.404
95.8928
586.348
187.291
172.469
464.49
119.736
88.5139
168.914
313.408
477.623
193.955
323.813
145.043
146.384
720.642
656.84
349.598
165.59
165.949
192.414
412.185
478.175
122.645
114.24
275.225
190.075
121.16
550.47
100.454
530.895
104.62
388.408
141.967
396.799
235.895
479.284
202.405
171.787
310.792
180.936
533.592
165.166
518.72
158.326
194.126
392.556
223.604
458.643
197.494
208.348
109.583
243.505
289.63
165.154
208.952
1268.34
72.1855
1163.18
1293.4
226.332
280.642
117.368
568.741
622.959
169.942
217.356
1651.14
291.416
113.392
137.03
142.423
84.3856
122.44
231.606
1089.81
131.662
140.537
539.245
195.354
181.239
128.277
171.084
140.739
801.783
1128.27
92.3385
98.1149
530.856
1298.09
128.087
179.914
120.951
230.567
378.207
286.288
401.82
389.227
436.654
100.155
205.078
304.804
84.3424
127.272
402.015
140.979
103.774
215.922
194.292
415.537
1257.63
336.257
212.648
165.168
153.336
498.557
121.833
1035.71
388.941
276.663
210.882
115.647
426.423
154.227
175.247
647.725
865.974
272.267
814.521
208.559
267.982
424.081
122.296
121.11
172.957
186.971
329.899
300.807
143.728
1410.89
968.753
497.937
174.458
70.3827
525.1
226.806
209.804
290.17
539.886
259.225
597.659
241.386
172.854
220.719
187.99
122.727
214.602
281.048
558.236
315.219
162.589
321.764
358.93
515.035
110.747
444.983
162.58
386.174
197.928
90.912
164.965
205.358
366.061
489.393
170.385
142.878
735.507
165.417
131.823
1214.58
274.629
250.147
183.566
218.05
280.915
186.634
132.419
239.221
369.732
461.089
143.806
138.576
121.965
146.315
190.371
143.038
156.958
310.658
404.185
153.116
169.613
196.581
90.3963
342.249
212.441
199.787
195.72
292.318
669.419
359.321
383.685
271.92
237.093
257.72
190.996
84.2429
415.151
148.172
302.346
177.396
207.424
290.711
817.004
397.875
753.975
288.587
723.324
158.628
431.572
385.012
185.169
115.508
1032.67
110.459
343.09
138.362
177.822
165.76
209.249
154.509
262.599
190.08
235.977
181.761
149.327
138.696
380.073
127.16
107.49
396.207
233.751
216.583
706.725
180.439
148.831
288.305
943.548
195.392
252.239
167.671
284.149
356.189
139.082
264.212
702.075
123.453
159.326
148.699
254.742
154.655
158.725
292.714
111.449
144.194
295.256
291.811
95.0456
111.18
165.072
346.225
287.071
116.997
483.403
737.956
427.046
494.454
394.069
151.208
358.842
122.695
646.688
1276.02
265.086
224.001
278.698
186.49
229.238
155.862
164.216
374.125
361.115
147.253
358.786
93.4204
383.067
334.528
274.918
141.792
983.734
494.146
207.066
358.005
176.981
374.019
208.939
680.729
180.93
653.769
762.508
160.709
208.947
198.762
232.05
461.163
140.184
248.671
267.989
241.676
168.086
123.767
113.634
631.188
581.889
314.916
54.9955
170.63
489.039
689.673
261.086
268.392
165.762
112.575
311.932
353.076
196.059
262.86
303.847
1098.64
274.241
167.262
374.301
211.719
93.2899
164.298
299.669
164.893
541.037
227.275
173.906
140.888
151.517
464.203
488.422
357.212
392.987
427.839
150.427
642.982
208.932
147.604
186.073
502.143
172.863
529.318
620.844
692.956
187.155
498.185
162.553
354.931
228.058
170.202
208.382
164.254
92.9193
589.564
227.507
264.521
350.06
650.534
367.347
567.575
561.207
490.705
229.779
131.022
127.858
108.899
328.265
316.364
854.041
240.902
105.011
357.754
426.9
198.017
144.884
2215.52
1809.23
558.734
490.122
237.057
963.652
265.365
130.93
708.455
789.04
486.773
117.279
129.379
168.097
922.004
74.7161
203.397
80.1423
157.881
170.902
109.884
389.223
124.896
155.517
194.719
128.536
408.963
348.872
408.797
111.005
638.523
139.911
294.367
342.897
289.428
648.644
165.537
194.189
170.938
229.915
198.958
90.3847
324.242
246.579
472.644
408.549
178.09
397.33
480.757
141.445
182.47
178.676
140.588
189.726
186.686
78.5866
225.029
337.337
275.217
1268.28
1019.04
344.371
472.899
454.5
102.365
249.689
188.862
345.86
394.241
385.341
146.857
286.018
287.89
269.627
149.355
111.992
117.822
102.575
185.046
233.813
53.1253
202.562
421.494
726.37
480.946
214.299
234.888
280.16
64.0255
610.611
554.706
497.891
139.06
255.039
85.4734
118.507
125.547
461.162
337.553
737.999
355.841
131.788
137.316
323.288
218.808
286.053
143.108
270.25
391.533
162.309
216.79
225.258
1146.78
182.965
464.105
401.434
179.405
189.574
689.256
278.794
164.489
254.497
147.038
370.811
219.839
148.264
312.733
464.231
802.126
197.97
183.239
176.88
78.6508
123.261
262.025
189.902
720.156
99.6454
184.288
163.812
441.426
295.286
121.381
194.962
119.904
389.243
245.498
258.586
247.038
235.696
330.87
527.724
731.696
223.917
638.517
98.962
129.109
178.729
451.448
550.055
401.247
447.606
127.179
209.742
430.752
274.532
156.74
165.549
358.937
146.628
164.984
351.589
269.93
213.734
136.321
230.593
194.097
490.782
512.24
704.523
421.619
216.333
305.777
182.228
240.009
382.84
862.096
783.828
748.543
137.784
233.14
478.178
270.426
261.41
171.587
164.543
275.05
122.344
118.701
327.627
234.806
205.754
214.593
720.353
737.441
479.569
125.708
225.878
241.317
215.744
204.424
471.314
266.252
137.843
294.257
185.295
256.823
255.923
513.508
325.249
90.7558
457.499
151.728
207.078
581.088
168.206
533.535
131.19
262.527
163.329
124.559
254.858
963.426
684.059
118.276
191.062
320.363
183.833
118.781
308.181
80.497
89.3693
158.004
389.312
144.73
160.566
144.057
166.051
105.497
264.798
173.954
215.116
587.87
387.097
246.742
141.398
256.138
120.012
189.202
212.367
359.729
631.772
234.859
211.28
128.608
189.134
132.554
225.268
520.719
1086.78
659.249
429.564
221.803
174.558
158.187
138.029
170.891
115.216
107.687
279.379
271.501
291.718
272.723
117.124
184.138
236.439
589.504
153.452
128.298
379.933
688.669
150.086
674.911
291.479
140.935
451.009
510.497
132.721
106.037
417.552
196.817
217.99
256.531
153.031
341.871
253.913
308.325
925.455
115.631
242.85
803.052
97.1293
298.418
655.482
223.543
1130.51
112.724
77.6332
129.308
338.037
186.207
631.477
165.552
211.461
671.056
663.522
205.541
123.408
99.2251
131.356
494.348
168.535
103.934
95.8044
108.392
117.275
380.324
182.131
95.784
255.939
132.021
182.183
233.767
465.312
666.482
444.012
523.363
700.792
91.1668
185.146
184.182
204.833
302.916
441.648
884.327
162.434
413.201
471.1
645.043
143.699
124.7
107.786
886.906
203.034
135.879
223.337
105.676
132.516
929.485
123.775
373.471
139.484
553.2
498.231
273.118
701.093
658.731
618.475
566.842
633.745
659.667
603.447
87.7017
197.157
226.062
166.795
99.0903
394.721
235.901
626.986
695.924
132.809
552.461
442.989
112.994
333.522
773.844
561.618
218.902
120.165
485.234
212.499
354.901
137.215
208.103
176.47
268.644
211.587
231.172
533.288
75.5
374.714
137.055
295.16
953.506
253.405
576.435
539.155
1155.93
158.861
98.7004
84.0027
829.566
692.16
137.473
106.11
176.77
120.704
123.465
191.507
517.303
233.519
110.282
108.868
561.28
179.163
132.548
412.411
350.644
254.606
274.231
568.351
345.243
138.045
883.466
984.589
297.44
590.433
547.389
784.184
536.713
486.346
329.241
580.234
299.565
173.462
183.84
154.527
288.079
341.562
154.044
394.906
148.238
719.788
122.888
435.353
180.274
167.934
524.891
596.305
160.186
599.171
498.709
526.414
422.779
361.328
870.061
456.239
636.732
416.653
132.841
481.524
158.402
112.063
198.08
324.291
340.064
380.326
257.18
145.788
363.957
446.804
187.88
563.973
103.704
97.817
106.556
243.701
166.398
146.446
660.967
688.572
147.36
137.74
105.461
193.621
146.856
142.982
299.113
553.2
206.453
243.524
306.918
390.942
171.435
535.958
190.776
329.381
483.639
511.725
579.503
665.688
271.814
234.431
457.643
592.439
156.189
889.516
350.434
512.937
179.782
218.836
612.725
324.059
604.294
169.52
393.717
223.887
172.095
157.861
512.247
119.722
124.649
153.192
196.724
519.459
425.968
802.935
265.456
611.174
151.957
242.486
273.385
399.772
150.395
163.957
472.247
173.891
260.223
314.203
488.306
314.503
338.401
371.426
153.273
88.1995
92.7044
150.827
107.525
301.732
624.54
431.448
513.474
106.293
162.639
312.221
192.413
500.247
373.44
242.502
550.77
186.79
1198
218.208
691.998
715.508
616.668
174.935
159.891
142.735
152.726
165.828
166.736
136.064
282.888
1262.26
167.363
332.014
145.991
560.28
222.956
474.43
91.3299
86.4375
564.034
615.575
180.569
1020.25
873.746
638.409
233.414
152.75
143.833
176.258
163.609
93.3909
243.435
371.353
218.611
293.767
119.169
91.5413
363.566
220.655
375.405
772.528
102.637
547.943
222.229
420.233
398.243
170.399
90.4674
299.487
300.754
284.709
875.719
137.678
604.143
265.466
234.439
159.23
653.907
502.273
167.255
456.004
206.065
564.425
537.832
742.917
298.512
354.209
345.633
295.998
807.725
105.316
352.964
94.9898
103.235
520.805
820.659
539.46
151.866
285.835
110.539
110.858
936.007
282.579
676.663
856.98
76.3356
116.537
430.431
583.362
190.586
142.691
1273.44
190.033
256.724
119.307
71.883
65.3797
116.374
210.392
93.5746
729.467
713.128
117.621
112.133
534.69
161.739
293.102
418.576
449.724
428.456
202.497
212.919
191.788
571.711
106.733
172.014
411.519
123.82
374.423
321.493
118.295
154.608
183.039
385.819
168.206
160.273
429.824
372.129
166.492
923.007
201.529
96.1036
121.189
313.83
256.923
159.309
114.626
138.496
171.21
162.271
183.106
746.366
112.287
271.39
113.208
168.648
153.699
178.228
599.249
225.386
544.369
111.956
148.554
156.605
463.574
618.026
706.216
163.081
101.848
208.112
750.965
390.653
222.069
376.08
176.705
219.881
813.135
222.587
165.47
394.478
258.79
992.349
180.851
182.464
415.98
583.968
110.28
103.864
119.482
652.726
148.187
335.201
687.908
571.319
159.295
287.603
141.329
82.8357
256.164
693.517
100.537
177.413
129.947
452.271
541.736
157.763
156.584
140.114
492.289
147.994
868.655
286.696
813.287
458.917
139.502
222.062
214.802
81.3747
69.2875
466.73
99.1163
293.069
318.373
195.731
176.575
540.728
609.667
250.15
270.917
130.941
589.245
570.544
388.065
344.198
538.369
278.113
156.399
121.092
171.432
327.741
570.2
299.387
306.463
789.096
143.547
177.096
335.055
132.847
161.176
147.824
173.56
144.588
103.92
290.392
279.024
729.112
314.289
304.321
218.288
219.709
240.546
522.176
295.668
273.147
602.696
466.39
141.378
161.735
444.309
271.063
110.476
122.533
122.482
113.26
174.98
668.031
790.748
188.815
206.45
123.608
133.126
191.905
167.216
295.258
346.176
144.757
606.178
617.52
503.519
132.608
240.55
495.772
208.467
94.846
208.213
208.944
1212.3
163.642
202.915
150.381
603.403
356.735
160.814
111.625
215.911
334.414
535.169
916.375
150.741
199.132
181.677
176.664
172.419
386.677
792.344
115.501
159.611
391.487
154.84
281.936
167.474
340.612
101.347
97.9706
322.481
524.219
180.62
465.63
539.26
129.511
199.275
311.181
816.626
97.1674
201.53
253.625
295.051
185.711
253.203
678.596
685.347
612.316
366.771
557.037
578.135
201.015
230.405
266.387
128.274
216.13
421.5
153.891
200.256
213.639
426.836
143.689
227.743
505.73
145.318
146.205
182.379
186.441
304.869
211.432
825.646
93.5382
207.66
71.0695
476.192
235.209
517.96
235.637
402.948
297.454
434.149
487.472
235.696
247.731
86.1317
93.5553
118.864
248.42
155.877
308.568
143.962
183.158
170.446
144.497
1031.9
110.83
88.1812
414.016
112.761
104.823
198.843
190.747
199.422
158.752
121.529
379.414
577.759
276.585
150.813
261.646
585.733
144.948
476.455
127.123
493.15
395.81
351.189
221.739
456.836
345.75
516.356
241.432
114.378
498.274
559.479
876.818
311.102
435.75
148.51
151.206
137.955
440.858
223.61
726.916
74.1508
79.0505
277.011
286.521
252.668
970.596
97.1258
483
165.981
128.593
306.445
485.36
452.558
152.333
185.573
95.6008
91.9649
818.437
473.64
186.485
117.055
137.734
179.896
208.449
277.91
522.109
100.462
514.014
203.714
256.4
156.384
416.467
224.355
589.759
169.128
201.779
257.72
96.6023
204.066
583.55
1040.82
480.938
160.3
183.186
182.116
173.226
676.24
448.569
126.25
239.744
548.295
185.674
160.503
156.944
632.824
347.326
216.394
186.713
260.861
457.027
354.954
291.035
181.961
248.484
636.403
748.518
135.691
580.707
338.248
97.9193
191.145
360.434
1210.07
364.049
491.053
344.596
149.019
457.723
438.45
240.577
503.073
152.215
307.667
682.225
106.55
150.628
367.094
142.778
161.756
372.642
467.319
217.358
629.076
575.526
164.963
145.145
769.038
120.767
174.128
178.752
230.553
140.845
241.099
122.409
89.0123
280.059
154.318
240.866
216.444
686.422
186.044
320.111
923.666
382.041
417.639
421.696
605.99
75.6042
75.947
259.338
478.569
560.748
213.46
176.759
210.835
38.4726
37.4235
407.352
727.918
268.194
346.181
113.607
142.412
278.191
576.353
122.554
173.369
774.489
103.089
627.26
545.834
192.053
163.954
437.324
268.767
156.863
345.831
252.516
471.265
438.565
346.718
374.523
165.415
257.307
91.8853
159.551
318.535
671.068
116.535
192.676
233.694
585.278
380.652
102.297
309.781
305.177
545.871
429.607
143.215
523.879
100.469
108.224
157.407
155.416
279.426
269.683
558.143
236.096
125.903
144.284
848.426
181.771
343.472
572.703
730.983
195.465
566.919
1081.41
264.034
176.795
284.029
131.652
92.7641
87.0557
124.825
177.811
267.475
103.188
703.307
375.347
123.16
274.794
273.417
135.589
165.258
122.38
152.337
231.158
372.771
344.632
313.138
133.099
108.826
884.81
149.496
601.683
329.069
427.23
493.586
170.438
140.603
111.977
282.39
237.56
148.667
188.817
509.285
184.801
160.907
240.406
278.144
570.157
590.844
111.342
83.6005
102.858
635.608
365.499
293.852
273.035
85.6589
869.378
674.411
334.732
428.12
178.005
199.714
304.669
297.485
457.02
175.795
125.313
151.773
287.271
127.195
103.925
677.401
90.9617
98.3031
732.722
673.622
540.38
213.39
114.163
103.865
131.569
239.708
410.838
379.536
253.86
660.531
239.43
78.7196
191.157
257.627
123.029
343.254
334.734
68.1564
113.286
184.911
141.937
86.9279
114.77
72.491
288.488
145.155
276.115
376.077
154.492
88.2523
278.339
555.6
467.406
222.771
277.374
693.334
770.021
107.492
393.489
118.372
939.845
107.912
357.946
127.186
674.208
749.121
553.016
455.696
565.674
389.29
526.591
111.734
115.182
91.5992
77.3362
294.42
99.2241
112.055
115.957
128.904
686.586
898.27
97.6607
655.678
534.948
186.828
132.578
246.741
167.009
550.492
534.072
135.053
250.358
555.976
239.739
138.863
266.125
268.472
78.0478
283.027
115.781
203.649
189.034
118.35
262.13
220.165
112.144
385.677
88.6603
607.502
662.024
246.404
127.465
647.632
165.985
118.762
376.529
101.448
610.413
156.911
145.32
138.261
275.444
300.258
100.016
197.533
428.565
699.738
105.116
703.463
430.982
391.805
175.02
579.348
129.1
152.883
82.9891
80.5169
728.095
490.357
1058.51
158.101
222.745
267.658
233.47
145.896
384.074
320.425
253.423
252.075
291.453
345.091
141.264
112.92
228.906
168.175
228.858
126.538
186.766
75.5661
902.379
749.49
750.886
177.496
453.388
374.42
320.645
365.781
409.476
311.19
398.097
215.195
428.388
347.551
171.952
198.442
115.37
311.759
321.928
138.469
199.495
189.065
261.994
1164.67
558.873
261.381
1054.31
948.103
291.961
814.168
342.166
443.441
342.121
313.477
95.1531
316.286
184.671
291.946
424.762
941.307
140.505
276.189
236.986
612.806
282.871
678.088
231.091
908.778
116.232
146.198
502.696
155.58
231.274
472.337
277.403
132.202
154.106
189.824
165.877
335.357
266.973
249.824
178.739
302.905
131.586
103.011
207.46
221.928
201.338
120.743
141.801
122.619
506.585
425.765
787.528
179.565
1057.42
144.638
149.441
211.508
103.249
98.3914
664.079
410.266
200.743
404.874
805.662
538.048
884.749
149.251
99.4303
182.104
123.412
227.072
139.974
234.604
310.892
201.129
378.333
319.871
1815.63
210.175
195.437
727.617
439.257
169.153
335.48
1923.33
261.401
397.333
438.636
1125.35
402.213
87.1491
149.459
161.726
137.925
306.015
116.272
103.451
95.5558
153.91
151.402
576.994
709.657
334.481
182.03
551.034
98.0214
94.9136
106.324
217.247
346.169
256.474
221.947
136.872
230.755
228.562
156.114
188.544
741.24
231.741
148.487
199.655
191.384
544.484
1426.23
123.357
1341.67
429.421
126.695
125.357
135.001
107.708
110.233
628.584
464.037
112.7
316.815
80.2841
87.1197
117.462
254.263
278.988
755.774
1496.32
306.87
2020.38
115.544
311.053
164.013
118.511
130.184
454.916
149.471
284.313
213.784
346.601
62.2444
210.513
93.7674
149.572
323.859
109.535
121.744
163.728
145.654
141.774
177.643
182.093
657.741
290.471
240.29
93.1763
371.132
253.915
130.989
840.74
153.199
316.321
190.75
223.505
74.4074
366.438
561.08
149.959
186.2
238.915
149.539
186.319
112.931
354.532
330.949
575.575
604.668
230.233
200.221
456.456
146.872
1487.86
221.017
288.086
188.988
474.725
497.171
369.142
544.894
189.865
200.404
251.484
109.059
285.587
151.292
425.115
106.064
205.995
450.081
307.738
617.968
434.262
312.623
127.446
145.835
544.875
335.596
275.256
206.616
115.024
193.958
352.279
186.981
219.446
133.602
216.541
231.378
96.7933
186.057
94.9365
137.319
364.156
337.999
338.56
279.082
291.035
179.013
553.269
348.154
269.271
286.785
306.321
291.134
486.603
284.736
299.391
364.54
235.269
68.0178
67.677
115.017
179.217
191.36
294.637
589.797
312.932
345.409
162.694
98.4648
104.641
404.548
208.27
78.4546
337.921
408.384
413.587
361.248
334.66
471.687
200.683
190.935
99.2956
156.069
455.789
236.168
125.351
236.669
299.186
258.766
397.599
396.133
75.1676
538.832
186.485
69.2911
287.147
303.886
517.008
294.391
142.458
99.6956
111.652
152.118
213.645
287.561
541.683
472.699
129.431
118.89
75.032
180.103
449.138
554.421
72.1093
533.858
71.5165
110.762
530.179
507.276
401.376
85.4327
131.812
459.393
95.6551
223.191
103.365
95.7536
69.5814
52.1787
84.2868
164.838
52.4556
44.5851
78.9764
41.0485
81.8857
227.268
41.2664
263.272
225.705
194.247
190.013
171.094
176.634
70.4283
176.886
76.6207
76.872
73.0882
77.4725
66.4738
361.241
155.823
226.603
185.92
106.206
55.2907
43.8819
55.295
68.1923
35.3077
67.0662
174.176
220.987
385.223
235.842
62.7279
63.0707
75.8879
216.599
53.3942
285.166
56.2734
52.8389
179.606
43.4133
46.1876
61.2969
130.881
218.516
93.6846
202.848
56.6118
44.6279
326.153
210.669
145.023
54.5154
65.1706
105.004
180.695
194.66
48.1934
41.8445
111.657
62.9451
48.7543
214.44
38.789
218.019
33.0961
145.196
77.4912
409.56
105.506
365.818
74.2236
74.1208
138.9
120.119
346.389
57.5076
316.488
57.8
240.552
319.066
79.4375
226.112
66.5954
70.8773
48.4928
96.302
92.8517
51.53
55.8224
589.551
47.1078
471.984
601.984
134.706
135
47.2784
188.842
187.341
60.6871
99.8775
746.175
85.0395
32.1633
55.1139
113.767
74.0889
71.1603
68.5628
429.484
44.4813
44.6013
293.618
79.9314
74.1942
77.6611
83.835
86.3216
400.764
548.478
40.5408
39.3509
126.732
594.703
62.9814
126.325
111.075
93.3822
158.839
161.07
145.041
145.491
181.283
36.4711
57.8807
124.975
29.0586
43.9738
131.227
47.9654
34.4204
144.069
55.2455
185.256
446.83
104.492
108.626
54.6627
54.6692
177.286
54.716
537.656
162.135
112.967
80.3268
92.498
180.53
50.9827
79.5813
240.303
404.642
78.6288
464.372
95.5541
134.866
188.966
120.611
110.007
74.4586
79.6937
140.289
170.901
62.4539
542.041
406.425
206.708
63.4627
33.5534
170.901
74.2434
64.833
112.684
213.762
83.9191
222.263
82.1799
53.0222
70.947
115.053
116.553
62.4802
160.464
217.153
104.404
66.4075
120.816
121.522
196.416
67.9438
202.691
45.0755
131.61
83.5458
39.064
34.6347
91.3548
196.861
172.868
66.6694
68.6
197.351
64.4536
44.5781
612.978
120.566
120.85
90.5371
93.8583
132.243
60.6791
52.814
95.5339
87.2362
174.634
47.5498
78.7492
81.1786
57.7329
125.18
64.6904
66.0809
113.117
132.523
66.992
57.2887
59.9443
32.1185
217.256
83.2282
90.3553
54.7155
144.29
293.112
235.225
292.106
92.9805
97.809
110.16
86.7044
42.5014
176.8
49.3184
117.22
75.6155
108.167
89.5683
332.354
124.574
322.041
94.3349
326.34
68.7258
204.892
186.798
69.2121
49.9597
503.867
37.8343
140.001
46.5828
119.422
40.7097
67.4895
54.5063
93.4045
82.1185
101.458
72.0074
48.8342
36.9305
176.662
68.1145
27.3346
216.587
133.057
85.8176
310.189
72.3369
83.3225
117.899
579.073
87.7625
106.389
66.0022
182.112
111.291
40.3086
110.613
342.82
44.3665
58.4363
56.588
208.842
92.0666
61.8718
151.816
61.5294
60.4502
234.257
199.346
45.8346
44.4073
68.9136
223.734
194.12
16.8058
172.227
294.542
127.192
307.192
147.748
83.4766
89.6183
47.7097
262.916
537.572
115.187
121.085
54.8904
105.312
123.31
73.0075
59.6061
195.159
244.439
45.5325
128.002
50.0408
184.1
142.202
114.524
44.9003
564.476
234.306
83.4099
142.767
59.248
145.775
69.1781
250.36
37.5038
313.103
335.882
72.1808
74.0858
85.5382
106.198
177.79
66.797
44.2053
156.684
110.745
53.1564
51.0444
60.0194
239.494
198.048
172.924
19.0298
54.5317
327.83
314.693
165.622
177.837
63.7413
68.0486
144.019
208.49
199.007
135.299
128.762
443.588
103.474
52.5131
177.663
127.213
38.4781
80.0526
94.371
59.7596
275.87
105.088
72.3084
64.6228
68.8378
271.534
201.648
125.982
134.659
149.731
56.3326
382.142
76.7231
49.425
68.1415
191.533
47.2848
340.89
364.967
286.746
57.3321
252.574
56.2568
152.179
68.1864
89.2702
92.0321
87.999
55.7822
190.832
127.971
79.7782
227.445
216.3
226.128
235.539
236.165
176.498
98.8576
47.3585
48.4245
47.3397
134.366
111.48
264.003
101.638
57.3119
140.865
216.516
91.8823
52.1312
832.982
671.998
225.369
219.061
60.4836
497.888
92.8456
46.4669
375.08
403.509
290.523
35.9626
75.4128
63.7078
501.783
24.0943
102.964
27.8955
52.7731
54.41
31.5129
72.5297
71.7155
66.5844
69.3838
109.647
187.792
145.511
214.339
44.4323
349.124
40.4273
109.125
178.304
120.722
266.018
59.5736
74.1479
55.5579
118.831
117.001
56.1378
150.085
112.777
118.518
127.59
68.635
146.54
266.788
27.8483
65.8825
71.4205
59.0473
75.5712
77.7253
38.8
157.862
135.911
177.329
454.708
403.881
143.776
208.139
177.039
59.7491
111.445
79.9918
120.4
272.48
182.695
61.5226
113.268
118.55
115.713
44.6135
71.8254
56.0566
40.0172
68.6118
133.721
85.1806
76.0938
182.293
309.001
279.895
105.447
138.353
120.985
24.0171
248.726
345.742
237.365
46.9865
207.056
81.4894
40.8401
43.5488
174.227
122.082
195.314
136.414
48.9632
46.154
89.9045
121.977
115.537
47.6423
104.537
199.75
70.5081
116.422
125.624
502.342
84.8224
225.328
145.211
51.0572
48.3576
280.67
104.207
68.0947
150.38
45.4317
142.14
41.2275
77.363
158.438
173.309
477.884
94.8579
58.6772
68.8923
51.501
51.4669
110.172
98.0594
316.748
174.615
60.5205
54.2768
189.784
154.343
68.8521
120.481
38.0786
163.271
119.322
172.846
128.942
98.5619
158.054
263.977
216.084
109.556
395.694
37.3136
39.0064
34.9544
202.246
248.535
165.8
202.346
44.3952
76.3738
197.777
149.946
62.2654
73.01
128.623
32.6186
137.324
300.81
126.751
157.526
46.3837
81.9278
130.463
234.899
206.733
347.655
192.149
99.2655
135.971
50.9904
79.5213
259.862
333.356
396.772
393.132
48.1342
95.2619
330.745
96.374
98.061
74.8748
59.7158
151.072
46.7305
61.7726
203.626
97.7818
90.6757
77.5205
335.91
276.421
211.632
41.467
107.065
139.989
92.7439
70.6039
172.277
124.899
58.1405
82.6345
102.274
109.603
204.52
202.784
191.883
40.0458
242.277
54.9026
62.9477
290.876
70.8261
236.908
40.2287
71.7455
54.6654
144.367
109.524
307.249
324.15
40.3723
101.69
146.83
95.8507
83.4878
139.291
44.933
47.1887
119.431
126.757
52.7606
145.19
52.5394
50.7259
53.0169
117.814
46.1094
92.6013
271.133
213.589
172.287
58.6176
98.7891
38.3335
66.7008
88.034
193.878
354.174
95.6881
109.959
120.032
77.541
63.6349
63.6395
307.498
337.708
321.558
270.86
85.8783
98.6593
49.5546
65.3806
72.0163
64.2821
47.6506
115.099
98.7833
119.732
150.818
35.3281
70.389
98.1765
199.812
72.0253
79.5278
111.278
207.127
46.1792
308.104
143.184
45.0667
155.125
283.348
114.267
46.8754
101.775
106.636
118.302
129.837
52.8713
154.065
152.844
121.409
325.521
32.5583
91.8905
348.745
46.3514
107.831
216.583
122.903
617.092
37.6402
35.9608
47.6457
136.934
35.5432
431.732
54.2152
75.669
278.076
208.827
59.0143
56.6345
53.2615
38.8648
268.875
65.5588
44.3041
38.8651
39.1251
38.5433
136.269
94.2938
31.689
85.4139
42.9785
87.5222
112.197
182.747
368.327
205.856
239.878
302.35
53.0843
67.4264
66.4236
76.3994
120.083
152.418
471.382
58.3535
210.814
206.65
218.663
88.4823
111.668
35.6803
494.461
44.0776
36.7269
100.63
50.7239
66.9502
367.864
116.998
103.39
48.4243
265.367
193.79
120.179
247.444
218.448
290.727
204.963
159.244
241.583
281.708
45.0012
72.0542
62.6309
49.645
35.8074
167.731
82.9114
175.904
268.231
94.043
308.102
210.628
62.0993
176.843
361.147
204.098
94.9352
54.6397
268.899
47.9858
230.475
83.2836
82.0562
74.346
123.065
98.4816
92.6065
170.625
43.247
162.762
80.2945
147.634
388.8
118.682
243.503
278.388
540.427
59.0577
63.3287
68.9807
281.554
285.684
137.82
57.4493
83.8537
59.2477
98.4122
65.3675
153.418
90.9716
55.5846
40.6927
208.797
56.2907
41.7842
174.129
172.751
167.597
100.446
174.215
144.077
70.956
329.006
339.207
117.822
180.781
191.482
328.866
186.456
228.481
120.411
339.553
169.599
61.1277
65.1124
114.58
223.169
227.977
114.502
158.858
38.88
341.981
49.5559
145.103
61.9207
63.5525
239.841
335.073
56.6724
278.097
157.581
293.085
163.808
143.076
338.464
216.189
288.905
226.616
42.262
216.952
72.4912
41.3
59.5244
197.776
171.312
157.069
91.2321
39.4843
192.445
277.063
56.9883
234.858
56.9191
81.0183
74.0783
179.977
37.7497
59.1111
358.77
270.138
45.0993
54.1683
44.6933
127.394
65.9311
56.9313
94.8187
216.535
138.938
100.337
133.441
185.803
100.678
180.204
72.2329
110.038
232.665
223.424
260.814
240.887
202.512
44.4163
225.177
318.61
59.7442
495.798
241.163
267.282
49.5756
73.8279
291.176
157.17
412.383
52.7818
166.987
93.3757
125.716
68.9354
162.577
131.436
48.0308
49.2426
47.9165
414.407
382.598
257.827
209.253
273.089
60.6558
88.0615
88.9145
174.014
62.7032
77.3009
475.322
74.6362
239.435
79.6852
156.608
141.516
148.402
166.169
105.272
38.1116
37.3823
65.3272
40.4866
103.52
462.849
242.455
259.871
68.4583
35.9758
93.5544
173.665
221.2
107.428
111.848
201.369
97.7497
547.419
78.1797
272.911
419.603
339.034
75.4041
95.8469
172.342
72.5737
56.4597
65.6757
64.4738
184.684
624.946
78.1509
127.447
99.9599
249.685
104.026
223.102
30.559
28.0052
239.292
275.364
92.3224
459.74
404.896
423.122
119.498
82.881
88.3203
111.541
57.169
50.1219
223.823
151.28
94.4778
98.4755
71.2963
40.8694
213.423
174.754
219.499
201.526
79.729
253.358
55.0572
209.169
188.907
91.4098
32.9974
145.856
145.955
175.744
253.708
29.0428
270.155
218.799
190.365
75.1617
325.219
225.768
70.7217
212.29
89.8343
190.846
194.772
246.258
201.596
155.257
145.633
148.793
298.009
47.7059
173.496
39.8366
32.7441
186.955
329.036
218.727
63.7489
121.151
44.6306
42.6098
479.974
136.628
445.29
418.781
29.4562
54.2547
182.46
198.554
50.9584
56.9157
498.081
72.0894
102.342
35.3127
29.1043
35.1474
26.262
41.3381
46.5047
250.945
189.443
46.4493
52.2506
260.358
71.1264
150.404
150.87
169.686
170.885
60.0351
71.3546
72.5424
265.133
47.3946
83.9713
120.551
55.5068
228.559
121.959
41.4601
78.7359
83.5161
157.974
50.23
46.1824
202.168
221.351
138.725
523.589
92.8976
80.9702
48.1562
141.478
58.6506
157.364
79.1713
69.5532
78.6702
68.7655
76.0813
283.503
29.589
94.4916
37.3034
71.0934
57.7559
67.5569
317.813
92.6674
285.257
51.5435
62.6457
60.4555
202.161
197.981
402.234
66.609
61.3294
78.8462
198.319
103.382
115.674
184
61.3132
98.5242
325.675
117.221
67.7167
238.951
103.308
402.244
68.7547
75.9055
176.12
223.823
45.0669
39.0999
35.1194
348.446
46.1595
172.883
168.162
218.707
56.8058
159.483
45.4246
41.9962
112.056
251.262
49.2054
88.0683
48.6136
217.367
312.447
53.8984
53.8476
38.4228
158.821
134.289
212.378
225.73
279.537
176.623
135.596
134.888
92.3769
23.0979
23.4254
327.741
34.0415
132.029
189.059
86.9931
107.551
205.766
238.987
86.5072
139.21
26.1974
310.748
311.137
150.022
166.9
259.758
95.0185
118.672
70.367
83.3599
163.28
244
120.758
134.957
297.771
50.218
115.823
133.573
52.5523
80.7149
85.1375
39.2649
31.4655
48.4723
83.4159
84.3901
342.63
220.641
87.4434
116.702
87.3145
91.6286
263.159
155.619
155.36
300.839
292.482
60.7389
50.0518
235.396
123.432
40.9715
46.6522
43.6152
44.2248
86.7613
283.318
363.427
92.4761
115.751
103.949
43.3177
73.63
73.8222
96.2297
170.72
92.6787
262.977
288.48
189.574
47.0125
148.415
298.114
87.4322
38.369
90.5283
112.196
511.92
65.828
92.3606
67.1463
324.595
233.283
43.0482
61.9857
130.674
93.7222
182.667
384.251
87.9431
98.4385
111.631
96.5368
106.749
182.625
285.538
87.41
94.1944
183.09
72.3304
120.208
82.1894
85.965
89.0193
44.0671
174.495
206.719
73.3967
182.279
171.667
64.6888
85.0236
117.128
356.423
46.3629
136.721
139.466
164.109
74.9691
95.5934
346.188
258.172
250.609
142.045
310.864
252.437
87.479
94.8952
94.5049
87.7843
95.5079
506.901
52.1388
94.8639
91.0183
186.276
36.6441
73.3512
215.778
43.7498
37.8556
70.0278
64.6049
113.553
95.0342
433.584
42.7518
58.0402
43.53
169.35
121.14
208.425
81.2272
105.392
305.742
178.149
237.395
76.2023
111.626
50.6738
55.3305
53.7526
137.812
38.9174
148.689
51.9276
152.511
84.8034
45.5557
497.119
51.9279
41.1303
172.179
64.4822
35.8343
83.7752
70.562
63.3148
79.7321
27.8803
132.969
301.855
122.006
74.9057
58.3033
242.151
46.3108
215.7
54.0638
187.414
183.294
161.747
135.454
206.535
239.07
205.151
89.3332
78.8397
179.212
193.363
264.238
118.028
224.907
55.7301
40.7838
56.3162
155.405
109.91
251.367
50.738
48.2817
110.532
143.253
93.7949
334.735
23.3467
185.455
90.9051
69.1663
131.957
205.786
178.726
53.5146
73.2488
39.7147
31.5187
474.647
121.909
71.8004
30.2727
54.7065
57.1168
128.725
102.506
184.088
44.0198
249.456
88.6269
133.48
74.8712
160.312
82.3928
249.712
49.4935
53.6145
48.4324