/*--------------------------------*- C++ -*----------------------------------*\
| =========                 |                                                 |
| \\      /  F ield         | OpenFOAM: The Open Source CFD Toolbox           |
|  \\    /   O peration     | Version:  2212                                  |
|   \\  /    A nd           | Website:  www.openfoam.com                      |
|    \\/     M anipulation  |                                                 |
\*---------------------------------------------------------------------------*/
FoamFile
{
    version     2.0;
    format      ascii;
    arch        "LSB;label=32;scalar=64";
    class       volScalarField;
    location    "10";
    object      k;
}
// * * * * * * * * * * * * * * * * * * * * * * * * * * * * * * * * * * * * * //

dimensions      [0 2 -2 0 0 0 0];

internalField   nonuniform List<scalar> 
76930
(
1.6641
1.73648
1.31886
1.1549
1.32939
1.78794
0.991675
1.13612
1.43103
1.02372
0.883286
1.9338
1.16714
2.42709
2.73798
2.9823
2.48634
2.21259
2.65827
1.25592
2.10894
1.74211
1.34989
1.34084
1.16157
1.1085
3.30184
1.5576
2.29249
2.45053
1.02762
1.35573
1.06525
1.32272
1.39842
0.787492
1.27265
2.06548
1.94441
2.79821
2.53341
1.34275
1.23214
1.50793
2.64535
0.881847
2.87095
1.43664
1.33434
2.11399
1.041
0.879418
1.46614
1.96559
2.15601
1.24381
1.78413
1.19579
1.20836
2.66599
2.57781
2.08618
1.19832
1.17532
1.43775
2.30058
2.49106
0.99014
0.967627
1.71439
1.35725
1.0642
2.28003
1.0844
2.20689
0.903127
1.99211
1.21055
2.30093
1.43977
2.32676
1.31769
1.26124
1.78572
1.49132
2.41028
1.24619
2.6514
1.30372
1.31834
2.64498
1.32907
2.34499
1.44406
1.43023
1.1264
1.61327
1.84376
1.16879
1.32649
4.70721
0.827217
4.2196
4.69817
1.67205
1.86457
1.03676
2.51941
2.62459
1.27131
1.43402
5.62093
1.74938
0.973023
1.11849
1.2389
0.901057
1.0645
1.45671
3.19877
1.10047
1.12533
2.50815
1.39378
1.3985
1.10684
1.329
1.25186
2.81578
3.09838
0.865432
0.919328
2.41624
4.23852
1.1265
1.44818
1.07935
1.74434
2.29733
1.75422
2.17106
2.01551
2.41595
1.09951
1.49004
1.97883
0.809561
1.00252
2.00216
1.28876
1.00319
1.53874
1.38947
1.99592
4.28334
1.75854
1.54226
1.3076
1.28405
2.35656
1.03444
3.51546
2.1785
1.52429
1.55864
1.02583
2.27044
1.37454
1.49807
2.67161
3.11355
1.63157
2.63166
1.52155
1.77613
2.27938
1.05473
0.97759
1.21221
1.24305
1.89687
1.80635
1.19784
4.40619
3.3284
2.47296
1.48645
0.784711
2.50177
1.61992
1.562
1.79336
2.34554
1.75996
2.62472
1.64626
1.32687
1.38416
1.39247
1.0715
1.45976
1.92336
2.59165
1.62688
1.27901
1.79736
1.95103
2.46141
1.00772
2.15076
1.21427
1.92892
1.53856
0.84376
1.15714
1.26024
2.30686
2.36419
1.28521
1.08384
2.86757
1.37386
1.23735
3.40218
1.5738
1.5807
1.32202
1.55406
1.56837
1.32403
1.31727
1.54183
1.85
2.25994
1.21483
1.18257
1.07794
1.1226
1.43282
1.30655
1.12522
1.82946
2.09215
1.15029
1.20228
1.37158
0.925526
1.70653
1.33349
1.44147
1.26577
1.62453
3.02745
2.2854
2.18175
1.5012
1.73663
1.76412
1.39802
0.872378
2.08766
1.18719
1.93922
1.23936
1.52659
1.59468
3.17798
2.17908
3.2221
1.68987
2.85005
1.28105
2.25103
2.25662
1.45059
1.04563
3.39425
1.17043
1.73989
1.06568
1.19909
1.18446
1.3128
1.22249
1.66143
1.4186
1.52679
1.30333
1.25935
1.18844
2.21819
1.10944
0.957926
1.85733
1.703
1.43849
3.1478
1.28519
1.12292
1.71794
3.47799
1.4712
1.68271
1.35668
1.77746
1.8995
1.14125
1.61515
3.02144
1.06413
1.16325
1.08991
1.63009
1.21638
1.28222
1.8121
0.967698
1.16792
1.91851
1.6782
0.915246
0.970508
1.22219
1.86598
1.62313
1.02502
2.43986
2.95234
2.03316
2.36935
2.09101
1.2221
1.81123
1.01971
2.44959
3.51812
1.63195
1.41861
1.71192
1.48709
1.6193
1.25426
1.29379
2.07488
1.98658
1.15608
2.07974
0.973761
2.13998
2.1079
1.52982
1.01483
3.53952
2.34068
1.56046
2.00923
1.33612
1.82474
1.5353
2.88506
1.24371
2.631
2.96202
1.16298
1.39575
1.55528
1.68778
2.41381
1.07312
1.57426
1.81883
1.70613
1.32304
1.09903
1.02862
2.73493
2.58085
2.07728
0.802341
1.29136
2.54953
2.93011
1.68487
1.63876
1.21181
1.07519
1.89771
1.97643
1.42951
1.74314
1.76102
4.12925
1.64821
1.27695
2.23449
1.58638
0.887565
1.18787
1.77704
1.25738
2.63495
1.79638
1.20325
1.1906
1.28711
2.18878
2.39257
1.93548
1.9361
2.07813
1.24378
2.46932
1.37211
1.19563
1.32462
2.53181
1.21614
2.89144
3.11756
2.70058
1.4434
2.18441
1.25492
1.79705
1.63979
1.25846
1.55739
1.23051
0.888932
2.54126
1.63696
1.61734
1.59276
2.82358
2.07311
2.71419
2.40088
2.34055
1.46454
1.1053
1.05548
1.04712
2.092
1.965
3.27958
1.5298
0.950387
1.98864
2.09873
1.52019
1.27191
6.19095
5.27286
2.61171
2.58476
1.37658
3.949
1.55944
1.09759
2.49936
2.61352
2.42871
1.04146
1.18106
1.25853
3.09812
0.876317
1.6009
0.968653
1.28618
1.2035
1.07684
2.05902
0.99275
1.14036
1.33989
1.24615
2.117
2.08384
1.829
1.03559
2.49743
1.10862
1.77368
2.08611
1.98444
2.81106
1.19003
1.37113
1.39542
1.51531
1.4229
0.829241
1.9776
1.67008
2.18098
1.95544
1.30117
1.8878
2.09128
1.03234
1.37012
1.26631
1.03826
1.38519
1.37806
0.785107
1.46153
1.84132
1.87023
4.11607
3.64445
1.85569
2.40451
2.30095
0.912602
1.48871
1.21922
1.92006
2.09407
1.95364
1.4164
1.75211
1.89788
1.80779
1.19048
1.00721
1.06373
0.977931
1.25594
1.37684
0.711621
1.3275
2.00487
2.87843
2.62138
1.37733
1.75907
1.67485
0.835873
2.57953
3.06633
2.50826
1.1737
1.51587
0.80079
1.24105
1.22497
2.48949
1.83177
3.04963
1.97948
1.13289
1.07281
1.99569
1.35857
1.79083
1.29609
1.45106
1.73949
1.38475
1.53108
1.45204
3.36077
1.24009
2.25542
2.2349
1.33647
1.37582
2.79967
1.88183
1.24041
1.60211
1.18153
1.97415
1.39182
1.17817
1.77675
2.08954
2.96017
1.50121
1.25918
1.24024
0.971666
1.08575
1.60806
1.37589
3.21984
0.913773
1.41296
1.22203
2.39668
1.97651
1.18222
1.33941
1.09131
2.11543
1.62255
1.5742
1.46934
1.49571
1.72155
2.59418
3.10964
1.45281
2.85899
1.1269
1.15436
1.20393
1.99647
2.27258
2.29597
2.19521
1.14605
1.59061
2.14514
1.61257
1.19064
1.3543
2.04876
1.13082
1.14676
1.8216
1.73705
1.51724
1.14165
1.38102
1.51274
2.31286
2.09764
2.36666
2.06096
1.42087
1.65237
1.30149
1.50435
1.82663
3.4286
3.09963
3.10984
1.22042
1.59308
2.12225
1.61329
1.57619
1.28783
1.18946
1.67351
1.12837
1.04857
1.91819
1.55273
1.28086
1.36211
2.91313
2.96042
2.43302
1.09305
1.429
1.68718
1.56615
1.47989
2.32872
1.47143
1.09076
1.64149
1.28352
1.52034
1.52045
2.63516
1.95612
0.846701
2.42843
1.18169
1.33196
2.7201
1.30504
2.65858
1.11893
1.62061
1.2906
1.07452
1.71199
3.22307
2.93015
0.93872
1.29115
1.84312
1.48748
1.02979
1.81944
0.777984
0.83163
1.20294
1.9814
1.33608
1.21542
1.14238
1.18644
0.932082
1.72011
1.29212
1.40793
2.50999
2.17194
1.64752
1.11512
1.49644
1.17736
1.37033
1.52604
1.95504
2.64563
1.58817
1.39934
1.09488
1.32477
1.1185
1.47514
2.69506
4.01368
3.0652
2.43937
1.40979
1.22924
1.25516
1.11522
1.32425
1.04286
0.975726
1.73506
1.73552
1.66522
1.93325
1.1045
1.49054
1.68054
2.65347
1.25381
1.11687
1.78677
3.07077
1.12902
3.048
1.7617
1.19279
2.31529
2.11003
1.10288
0.959699
1.79178
1.58926
1.70892
1.53012
1.28623
2.11301
1.57755
1.8359
3.0747
0.980028
1.44184
2.87975
0.898342
1.85822
3.05304
1.65999
3.12693
1.02971
0.742492
1.1907
1.9964
1.24965
2.78163
1.30504
1.51591
2.7851
2.91742
1.4833
1.14339
0.985182
1.10566
2.27864
1.21526
1.14106
0.929287
1.16278
0.924989
2.11894
1.38079
0.890831
1.52013
1.05716
1.20708
1.53149
2.4677
2.77988
2.32891
2.49232
2.80877
0.849548
1.39544
1.37092
1.44705
1.87494
2.17615
3.06049
1.23685
1.88388
2.23543
2.60379
1.12164
1.02749
0.996366
3.13292
1.30362
1.00486
1.40512
0.943011
1.04754
3.11843
0.993752
1.89653
1.29223
2.62193
2.44757
1.65395
3.18629
2.9589
2.92847
2.74082
2.94135
2.92922
2.73511
0.774975
1.32437
1.48603
1.1979
0.974198
2.02375
1.36418
2.44587
2.63068
1.1277
2.84946
2.21043
1.00091
2.08098
2.78542
2.57353
1.57929
1.09958
2.29403
1.33406
1.88643
1.1427
1.57062
1.40751
1.64433
1.49777
1.65551
2.11101
0.753618
2.1346
1.02036
1.93636
3.03761
1.71678
2.70852
2.62197
3.67683
1.30716
0.887226
0.815488
3.20095
2.87877
0.95038
0.898062
1.21869
1.03482
1.00631
1.33177
2.39566
1.51061
1.0876
0.991388
2.21781
1.30599
1.06125
2.17539
1.95222
1.79403
1.71784
2.27834
2.02858
1.07543
3.14173
3.33742
1.76203
2.76807
2.64803
3.05483
2.45171
2.18462
1.80181
2.62956
2.01882
1.30051
1.31548
1.14545
1.80444
2.01399
1.33311
2.1418
1.21942
3.14366
1.25814
1.96367
1.23679
1.43613
2.42085
2.82811
1.19206
2.63963
2.38039
2.60727
2.16402
1.93336
2.93656
2.5607
3.00616
2.51686
1.08421
2.51172
1.33707
1.05087
1.52882
1.85797
1.89081
2.12229
1.47818
1.2135
2.02263
2.20588
1.28539
2.62201
0.912624
0.964133
1.07196
1.71557
1.2779
1.21934
2.97416
3.16303
1.14317
1.15255
1.0828
1.35387
1.21093
1.07922
1.74196
2.425
1.55523
1.55846
1.84082
2.28506
1.25944
2.15717
1.35481
1.75504
2.50554
2.53231
2.56053
3.03588
1.87449
1.48673
2.53018
2.73358
1.286
3.19602
1.93199
2.50727
1.2422
1.60893
2.74538
1.7998
3.06202
1.25716
1.91365
1.498
1.24067
1.05214
2.16542
1.07646
1.07486
1.26461
1.28385
2.79123
2.51845
3.47051
1.73995
2.77958
1.09816
1.5333
1.5345
2.2349
1.28259
1.17897
2.58122
1.25346
1.27608
1.78529
2.19941
1.65055
1.87684
2.00502
1.17389
0.853797
0.865307
1.14848
0.969687
1.76579
2.62295
2.38029
2.38644
0.976442
1.16885
1.80248
1.27732
2.04102
1.93796
1.56228
2.46113
1.29947
3.69946
1.46284
2.80521
3.25638
3.13099
1.42243
1.23959
1.10006
1.1135
1.17116
1.20011
1.28094
1.90434
3.68029
1.25865
1.90047
1.08446
2.64955
1.54871
2.31127
0.928562
0.901564
2.70636
2.75131
1.38494
3.64655
3.44305
2.71783
1.56195
1.19627
1.15648
1.14291
1.21116
0.930249
1.39016
1.80331
1.46654
1.75613
0.978519
0.857744
2.29042
1.64404
2.00584
3.19466
0.830351
2.48832
1.42663
2.11263
2.02263
1.3607
0.922702
1.98436
2.00661
1.60156
3.54549
1.17985
2.71869
1.721
1.60256
1.15446
2.66076
2.5369
1.27521
2.06727
1.49053
2.63176
2.41137
2.90164
1.87284
1.94142
1.76119
1.58589
3.1798
1.04169
1.9417
0.940951
0.893629
2.42709
3.1656
2.63767
1.08294
1.93543
0.98621
0.977077
2.98916
1.50062
2.718
3.29314
0.836341
1.09894
2.10159
2.65874
1.40306
1.1846
4.03142
1.24836
1.48744
1.0176
0.77831
0.731071
1.05224
1.43511
0.897374
2.91089
2.99622
1.12141
0.97521
2.6903
1.25383
1.8979
2.18462
2.11303
2.09753
1.47494
1.54068
1.4174
2.28304
0.964656
1.30802
1.95776
1.14757
2.15717
1.81978
1.01462
1.33878
1.3053
2.23044
1.30315
1.1623
2.27987
2.33761
1.2707
3.35848
1.61279
0.834303
1.12056
1.86381
1.61885
1.14528
1.06222
1.15975
1.38234
1.36348
1.46246
3.24875
0.969186
1.54137
1.05777
1.34287
1.29693
1.24246
2.67222
1.64145
2.60536
0.995026
1.0825
1.1504
2.33577
2.76661
3.03355
1.31818
0.924754
1.29806
3.28315
1.79132
1.45258
1.87546
1.3955
1.65714
2.92982
1.41017
1.18107
2.24695
1.50582
3.16414
1.40527
1.51833
2.04516
2.82812
0.992583
0.975544
1.03882
2.92673
1.22533
2.17293
2.52022
2.56218
1.13467
1.68808
1.1194
0.800709
1.67535
2.59598
0.935353
1.41883
1.26206
2.27801
2.925
1.33013
1.27036
1.10412
2.2748
1.08346
3.17271
1.89642
3.12017
2.16749
1.13096
1.34088
1.49128
0.850472
0.769466
2.44368
0.927772
1.76
1.82982
1.31055
1.26701
2.34871
2.82532
1.51852
1.75967
1.0446
2.74951
2.62581
2.19882
1.97295
2.34742
1.72709
1.15372
1.10233
1.20151
1.72555
2.30972
1.92112
1.83094
3.09456
1.12012
1.47879
1.89759
1.10446
1.19908
1.06414
1.26956
1.08171
1.13775
1.59612
1.67547
3.18018
1.85715
1.53857
1.627
1.43364
1.50174
2.13804
1.66668
1.64781
2.5941
2.00347
1.18752
1.22736
2.18625
1.57522
1.17158
1.20664
1.16958
0.988917
1.4072
2.94013
3.18655
1.48414
1.5378
1.04349
1.18029
1.37683
1.19613
1.65896
1.95895
1.14978
2.7275
2.65732
2.50855
1.10576
1.66886
2.58366
1.39228
0.867853
1.36037
1.34538
3.27014
1.3623
1.20813
1.34238
2.99253
2.03149
1.15009
1.05059
1.44768
1.90241
2.60579
3.21755
1.28454
1.53029
1.20328
1.39657
1.37155
1.95974
2.63233
0.970086
1.33598
1.97348
1.29157
1.65289
1.23082
1.88403
0.911185
0.979659
1.76139
2.35242
1.31056
2.21174
2.20536
1.1791
1.41187
1.90221
3.24334
0.881749
1.58422
1.83376
1.80582
1.25614
1.51809
2.97999
3.05721
2.68456
2.10501
2.56663
2.78737
1.46203
1.58142
1.73941
1.06241
1.32075
2.50298
1.27087
1.59832
1.70698
2.37191
1.12613
1.4902
2.4234
1.21938
1.21158
1.45132
1.41437
1.76821
1.45087
3.35213
0.88118
1.38906
0.728204
2.28421
1.57375
2.41589
1.41884
2.13131
2.49347
2.40491
2.39416
1.37488
1.60935
0.912411
0.943713
1.06272
1.76362
1.28213
1.81022
1.19361
1.18037
1.34868
1.0941
3.16752
0.973813
0.848851
2.14913
1.15724
1.00234
1.36943
1.32004
1.40646
1.24093
0.98405
2.12447
2.7266
1.56354
1.08804
1.58091
2.77228
1.1193
2.57441
1.06592
2.58915
2.42858
2.11235
1.61193
2.60566
1.87588
2.34367
1.4379
1.15993
2.40448
2.45394
3.0972
1.78617
2.17598
1.27018
1.26895
1.21324
2.04011
1.59072
2.86852
0.812007
0.832847
1.70799
1.75606
1.58941
3.19156
0.962122
2.46128
1.14328
1.15629
1.83678
2.32748
2.11781
1.20788
1.29913
1.08732
0.875829
3.3688
2.18892
1.30548
1.00336
1.08949
1.28921
1.58707
1.67251
2.51836
0.957806
2.34894
1.33124
1.79754
1.27408
2.17611
1.41657
2.99796
1.27186
1.35323
1.6145
0.964784
1.38427
2.60198
3.17757
1.99564
1.26777
1.33146
1.34084
1.28402
3.05206
2.18983
1.07415
1.8196
2.26568
1.30227
1.25979
1.13701
2.89472
2.02973
1.31798
1.36947
1.3779
2.17486
1.90388
1.72676
1.51955
1.52272
2.76007
3.09049
1.13383
2.56664
1.99589
0.898137
1.5112
2.0613
3.65905
2.05321
1.98912
1.86305
1.18387
2.3298
2.30492
1.47064
2.18944
0.992426
1.81351
3.11314
0.970769
1.07532
1.93509
1.19336
1.3084
1.94682
1.99195
1.39725
2.80333
2.78866
1.39589
1.07581
3.16882
1.03667
1.32679
1.15912
1.54136
1.0623
1.64005
1.09122
0.881239
1.78701
1.32731
1.40029
1.3669
2.7317
1.23831
2.0782
3.11555
2.29653
2.45827
2.3369
2.59294
0.811322
0.819408
1.41333
2.09111
2.61754
1.47408
1.26921
1.47142
0.601267
0.584782
2.19389
2.89895
1.87046
1.82611
1.07382
1.21429
1.8382
2.72649
1.12087
1.27236
3.08902
1.12957
2.80918
2.40653
1.36968
1.25039
2.31115
1.56907
1.26443
1.85431
1.70134
2.51906
2.27754
2.00714
1.84512
1.2612
1.79886
0.931867
1.15894
1.9883
2.51532
1.01709
1.38088
1.7119
2.82081
1.89543
0.972979
1.70891
1.72824
2.82999
2.14843
1.1451
2.15118
0.97628
1.0271
1.25729
1.16169
1.77682
1.75845
2.79345
1.61989
1.07726
1.16534
3.02297
1.36404
1.83146
2.89084
2.90883
1.35783
2.86441
3.18836
1.66015
1.44325
1.6554
1.09029
0.909548
0.87762
1.00441
1.33711
1.78113
0.928032
3.07662
2.07477
1.1632
1.64277
1.52341
1.07098
1.27454
1.13052
1.26529
1.53406
1.72604
2.10705
2.00381
1.00836
0.989685
2.96055
1.20956
2.19957
1.81428
2.08174
2.70615
1.20255
1.2636
1.05167
1.74045
1.60015
1.12697
1.37225
2.46142
1.23579
1.27248
1.54622
1.77854
2.5716
2.98174
0.976528
0.840684
1.11405
2.71288
1.75241
1.75823
1.72407
0.882452
3.64432
3.78665
1.80509
2.2999
1.42992
1.21578
1.72304
1.88277
2.32682
1.21422
1.12866
1.21305
1.76971
1.08836
0.982948
2.97105
0.921267
0.950583
3.04501
2.75087
2.47568
1.3792
1.20043
0.961449
1.17433
1.50481
2.01943
2.06386
1.78361
2.67015
1.40728
0.83814
1.35929
1.2716
1.06481
1.83805
1.89288
0.754877
1.0524
1.30467
1.18636
0.786062
0.98025
0.707649
1.7237
1.24236
1.61766
2.07158
1.17089
0.867465
1.70098
2.33363
2.23005
1.43126
1.92996
2.97949
2.82218
1.02517
2.10608
1.08418
2.83516
1.04048
2.1795
1.00432
2.8993
3.10956
2.33815
2.1191
2.62338
1.99759
2.22584
1.06022
1.02855
0.942816
0.814979
1.80001
1.01096
1.08125
1.05568
1.15344
2.81885
3.61889
0.964028
2.88804
2.53309
1.25859
1.17806
1.5619
1.2829
2.66704
2.61858
1.09926
1.57357
2.47208
1.67232
1.13264
1.79945
1.82163
0.787797
1.73802
0.987113
1.58304
1.42025
1.10118
1.50716
1.39797
0.989444
1.98236
1.0452
2.6598
2.97198
1.52451
1.18594
2.69816
1.35173
1.09341
1.94562
0.91449
2.42061
1.12144
1.06878
1.05031
1.80453
1.90076
1.09879
1.39458
2.16223
3.21533
0.946604
2.60488
2.21093
2.14364
1.30466
2.16842
1.10905
1.11511
0.854767
0.840398
3.13782
2.3896
3.31027
1.24496
1.48637
1.86587
1.46854
1.08973
2.15736
1.73201
1.55744
1.53645
1.72212
2.05259
1.19823
1.0637
1.40873
1.43036
1.70831
1.13779
1.41461
0.803335
2.99026
2.63342
3.01738
1.46437
2.27664
2.00856
1.65084
1.99547
2.17933
1.77529
1.91534
1.4558
2.30843
2.15691
1.33897
1.3554
1.04613
2.06142
1.97318
1.18402
1.44274
1.24129
1.61233
3.42804
2.55275
1.87338
3.29706
3.1961
1.70984
2.59169
1.93797
2.56777
2.22007
1.92232
0.860628
1.79065
1.26973
1.90186
2.3747
3.12431
1.03354
1.68248
1.7039
2.62562
1.78075
2.78725
1.67828
3.41138
1.1095
1.05977
2.40141
1.26289
1.38296
2.2104
1.71262
1.08264
1.16146
1.28999
1.23041
2.09109
1.80604
1.69057
1.19911
1.72405
1.09899
0.897393
1.49503
1.36242
1.34014
1.11474
1.235
1.09849
2.60183
2.28294
3.18765
1.30118
4.29966
1.20168
1.2157
1.57757
0.947161
0.937739
3.87884
2.23927
1.21297
2.10591
3.70659
2.4434
3.66715
1.32569
0.931684
1.29443
1.07367
1.56156
1.17251
1.57118
1.87171
1.39852
2.01194
1.73154
4.97795
1.31216
1.38073
2.87578
2.53138
1.27649
1.83522
5.66382
1.70556
2.18113
2.14595
3.29371
2.0704
0.913927
1.0828
1.12901
1.23168
2.05408
1.03026
0.993704
0.941476
1.13603
1.13983
2.51015
2.84694
1.91656
1.47253
2.4778
0.985659
0.962717
1.04573
1.54012
1.94963
1.66241
1.46363
1.12247
1.81963
1.369
1.16955
1.37586
2.5811
1.30773
1.12354
1.35162
1.28859
2.29912
4.55578
1.11546
4.05772
1.99734
1.09965
1.10613
1.21141
0.997996
1.01302
2.68698
2.48956
0.953723
1.89892
0.817888
0.86934
1.05801
1.49683
1.95138
3.56729
4.51877
1.68597
6.05411
1.04896
1.81794
1.24281
1.06812
1.12293
2.11917
1.17574
1.84636
1.65019
1.81647
0.73864
1.70554
0.855701
1.16342
1.56441
1.06108
1.0528
1.17595
1.07538
1.27423
1.3091
1.22634
2.69022
1.73467
1.54575
0.876653
2.13949
1.81541
1.12759
3.15405
1.21386
1.87518
1.29183
1.43703
0.83009
1.80662
2.79529
1.1395
1.1786
1.39637
1.13844
1.34131
1.04906
2.02806
1.91022
2.57162
2.42023
1.87265
1.37762
2.40998
1.2354
4.957
1.61303
1.76187
1.18908
2.3208
2.50887
2.01896
2.55198
1.36048
1.39879
1.70732
0.977022
1.66305
1.28972
2.08289
1.00628
1.38301
2.37302
1.81445
3.10427
2.31919
1.91075
1.08881
1.19513
2.3585
1.94735
1.9451
1.64439
1.20698
1.40119
1.9763
1.23803
1.48746
1.10413
1.47002
1.54652
0.79923
1.50415
0.882921
1.13929
1.91367
1.77494
2.19066
1.73789
1.63239
1.69394
2.3828
2.17224
1.75833
1.77653
1.80946
1.99815
2.32513
1.68907
1.62354
1.89967
1.6277
0.763854
0.76011
1.02937
1.39605
1.40261
1.82101
2.51467
2.02294
2.10891
1.45485
0.963536
0.950562
2.37868
1.46878
0.795801
1.72641
1.99606
2.02525
2.18836
1.95573
2.52843
1.49041
1.57728
0.911532
1.28592
2.44504
1.66269
1.08396
1.68732
2.00903
1.57393
2.42544
2.57167
0.770638
2.37081
1.43627
0.775241
1.92976
1.78622
2.38306
1.76528
1.2926
0.85491
1.01671
1.28487
1.65771
1.45505
2.26845
1.98238
1.18809
1.13576
0.807498
1.39753
2.34112
2.70633
0.785269
2.23165
0.796407
0.950573
2.39967
2.19762
1.91626
0.825892
1.0808
2.2278
0.875885
1.22223
1.90755
2.11999
1.38003
1.35206
1.80952
2.87442
1.04836
1.0959
1.80857
1.10102
1.51791
3.34378
1.23
3.26047
3.76913
3.86249
3.73988
3.55735
3.61629
1.54584
3.8649
2.12336
1.87318
1.83874
1.81111
1.61616
5.08556
2.60115
3.763
3.69473
2.06108
1.55311
1.18452
1.3818
1.65026
0.76589
1.65137
2.88888
3.83952
4.19458
4.44328
1.49894
1.40914
1.71671
3.70925
1.04753
4.32306
1.52027
1.52631
3.26892
1.27558
0.97866
1.80738
2.43954
4.03746
1.6433
3.30184
1.42572
1.31779
4.94199
3.94214
2.83535
1.36684
1.39284
1.88821
3.44816
3.7221
0.900515
0.901603
2.04257
1.54274
1.10787
3.6033
1.28045
3.53993
1.09931
3.04912
1.69107
5.92602
1.92014
4.15021
1.91052
1.7138
2.04561
2.08027
5.68237
1.1974
5.43683
1.4619
4.23512
5.92512
1.58153
3.64167
1.80607
1.77076
1.40437
2.31142
2.5118
1.14234
1.50399
7.18494
1.34858
6.65065
7.61842
2.36131
2.61425
1.28874
3.46966
3.61152
1.35135
2.04854
8.36965
2.12766
1.03149
1.59397
2.36948
1.6129
1.4921
1.71845
5.6817
1.37039
1.18039
5.05992
2.02356
1.88802
1.72641
1.97166
2.6166
4.51241
5.56945
0.991473
0.933107
3.07224
7.91841
1.08511
2.02503
2.01489
1.97616
3.69211
2.27535
2.66849
2.7527
3.72251
1.24108
1.87807
2.23734
0.840321
1.05085
2.58799
1.50606
1.11888
1.8722
1.61686
2.77093
6.48538
2.28955
2.51053
1.54408
1.42052
3.56852
1.2682
6.54227
3.38298
1.94288
1.81997
1.9019
4.062
1.47177
1.73881
3.62686
5.1744
1.92398
4.8942
2.05576
2.54761
2.91587
2.17334
2.05293
1.74207
1.78617
2.53083
2.46626
1.10706
7.25494
5.62466
3.66226
2.02045
0.767002
3.22818
1.89657
1.68245
2.32969
3.26615
1.71396
4.21237
1.82554
1.37717
1.55545
1.96227
2.07434
1.78614
2.90432
4.36432
2.38906
1.76034
2.39991
2.62763
3.31989
1.40371
3.29719
1.23939
2.85602
2.26999
0.983381
1.05508
1.42634
4.17251
2.86803
1.65394
1.10164
3.92277
1.61289
1.32985
6.38913
2.42639
2.22186
1.73099
1.95921
2.36094
1.48724
1.88394
1.9228
2.36283
4.02281
1.18317
1.50429
1.41865
1.09716
2.182
1.43777
1.43928
2.55485
2.9638
1.29627
1.4076
1.64217
0.85859
3.09831
1.74791
2.09919
1.39407
2.81836
4.13517
5.23167
5.1586
1.83064
2.30556
2.55338
2.15679
0.756391
2.74324
1.26145
2.50832
1.62443
1.69239
2.23842
5.15161
2.98203
5.84357
2.33235
4.43847
1.34171
2.77237
3.5826
1.95692
1.38219
6.33753
1.31082
3.012
1.18581
1.98852
1.14012
1.4451
1.46844
2.33101
2.18336
2.21767
1.23978
1.06844
1.09749
3.85525
1.87987
0.917473
3.06035
2.16224
1.62509
4.14475
1.74811
1.62462
2.18699
6.78569
1.66
1.93999
1.45156
2.99496
2.57135
1.22444
2.39733
5.63501
1.17795
1.08278
1.33642
3.4677
1.55931
1.42318
2.74514
1.17725
1.34001
2.40939
2.59096
1.14274
1.16474
1.43153
3.66007
2.82097
0.969546
3.18702
4.79411
2.61504
4.241
2.94009
1.47315
2.1798
1.35296
4.88649
6.33449
2.48601
2.02467
2.364
2.21463
2.58357
1.60605
1.30636
2.659
3.28197
1.41075
2.93751
0.934028
2.87067
2.66921
1.96915
0.783749
7.16563
3.14193
2.22208
2.51412
1.55468
2.6009
2.0811
4.15347
1.343
3.56031
4.09301
1.66392
1.65919
1.84108
2.31503
3.06891
1.40169
1.8463
2.59741
2.56119
1.16281
1.3868
1.21233
4.07527
3.79396
2.79225
0.904829
1.30617
5.50733
3.48784
2.81281
2.64844
1.1727
1.30402
3.64423
2.78349
2.51705
2.01841
2.35987
5.89737
1.9395
1.38466
3.54394
2.54036
1.01253
1.71792
2.23758
1.11266
4.93383
2.94869
1.457
1.56376
1.57568
4.0103
3.26963
2.23349
2.61249
2.80046
1.4717
5.46647
1.55812
1.33495
1.43369
3.54129
1.22588
5.7949
6.12247
4.08895
1.48838
3.83021
1.6772
2.59685
1.98903
1.88303
1.84327
1.8761
1.21832
3.72324
2.25016
2.15147
3.86738
3.5758
4.67048
4.90257
3.25949
2.91856
1.77278
1.1221
1.40459
0.942261
2.82586
2.61474
4.79367
2.36041
1.30326
3.79122
3.64152
2.15697
1.1978
9.51918
8.4209
4.13214
3.98945
1.49541
5.74221
2.11298
1.39371
4.48258
4.27258
4.07752
1.04915
1.31276
1.76772
5.05541
1.0768
2.33325
1.18132
1.57198
1.19973
1.0013
2.43741
1.15079
1.05096
1.51177
2.30372
2.53652
3.40493
3.52408
1.08507
3.74003
1.25352
2.42065
2.98353
2.72444
5.34643
1.46712
1.76899
1.63069
2.45991
2.3498
0.997634
2.38
1.83452
2.9018
2.89155
1.68873
3.23899
3.8923
0.841383
1.61928
1.57516
1.18615
1.90084
1.97447
0.824038
2.8303
2.84259
2.31567
6.62363
5.86541
2.58691
3.02926
2.83245
1.18486
1.99103
1.59292
2.39351
3.80677
3.31887
2.02729
2.15554
2.4433
2.93276
1.29938
1.64063
1.48888
1.2573
1.38729
2.106
2.01409
1.6122
2.61345
3.77127
5.41257
1.62124
2.35462
2.70956
0.885798
3.37366
6.02415
4.03379
1.14363
3.09255
1.2472
1.4394
1.39503
3.58774
2.62332
4.77742
2.37416
1.21725
1.07444
2.28432
1.57922
2.0011
1.484
1.97829
3.2326
2.15137
2.2607
1.79345
5.86816
1.5617
3.02919
2.96347
1.46271
1.52138
4.06207
2.09268
1.42343
2.53405
1.26041
2.39564
1.50061
1.42435
2.70112
3.0083
6.32836
2.27102
1.53315
1.57069
1.63491
1.12872
1.90117
2.08273
6.02466
2.33156
1.58824
1.46901
3.18371
2.61735
1.54962
2.62809
1.19472
2.50976
1.69552
3.3738
2.41312
2.10226
3.20694
4.13913
4.18035
2.24037
4.79921
1.4443
1.14269
1.31587
2.63351
3.13318
3.1295
3.4222
1.10509
1.88476
3.45865
2.63453
1.45392
1.81508
2.77357
1.11414
2.64141
4.95361
2.77419
2.82402
1.1209
1.39423
2.18225
3.87076
3.25876
4.54146
3.35301
1.79614
2.20801
1.38682
1.94998
3.20651
5.19194
5.46283
4.3229
1.31287
2.28073
5.25411
2.15439
2.32899
1.84471
1.2762
3.14974
1.37197
1.40673
3.83778
2.24085
1.80578
1.79472
4.46725
4.23667
3.37136
1.20535
2.07411
2.56001
1.96798
1.5179
3.19687
2.50476
1.06968
2.52784
2.2271
2.49792
3.46741
4.45227
3.22035
1.0942
4.78238
1.6518
1.50731
5.68277
1.30494
4.45799
1.25092
2.17944
1.33802
2.37143
2.15821
5.23065
4.33717
1.20551
1.54476
1.96167
2.36911
1.48376
2.52497
0.9417
0.89966
2.20497
2.57743
1.52393
2.47939
1.6614
1.27031
1.214
2.49801
1.62626
1.67169
3.71122
4.20403
3.15579
1.18383
1.95083
1.20558
1.63585
1.91049
3.77183
3.9203
2.23092
2.12905
1.99987
1.47378
1.74721
2.06468
5.21803
5.64896
4.78029
3.84106
2.36996
1.84815
1.20293
1.09793
1.673
1.317
1.206
2.23615
2.27362
2.51688
2.57494
1.14591
1.43451
2.10481
3.64868
1.63014
1.54912
2.40512
4.21289
1.40594
3.60084
2.56893
1.1861
2.97119
3.9156
1.99685
1.04546
2.24116
2.33165
3.16698
2.45683
1.42553
2.88976
2.80493
2.40779
4.63912
0.836214
1.56811
4.91817
1.26275
2.41824
4.1736
2.46528
5.93919
1.10512
0.86132
1.04649
2.97678
1.6628
5.95602
1.52307
1.74192
3.91433
3.92439
1.84678
1.60888
1.12181
1.23075
2.45127
1.43613
1.66782
1.0172
1.36559
1.15276
2.56438
2.00466
0.977659
2.10987
1.11653
1.59322
2.37321
3.46737
3.8928
3.61876
3.73942
4.4751
0.996999
1.67601
1.57987
1.88718
2.37889
2.81608
5.79178
1.3687
3.18558
2.75983
3.64567
1.6004
1.78651
0.984599
6.15357
1.51945
0.877013
2.55927
1.12344
1.47567
4.44967
1.39922
2.45978
1.45882
3.80513
3.28794
2.35282
4.51202
3.8277
3.54241
3.74884
3.7936
4.34853
4.70169
1.05226
1.46015
1.86907
1.31115
0.69953
2.98612
2.0013
3.21676
3.55208
1.64646
6.11689
2.74872
1.34796
3.15395
4.33159
3.72461
1.75665
1.30037
3.27357
1.43146
3.59073
1.19276
1.50101
1.42173
1.72212
2.09346
2.22456
3.01699
0.933601
2.49978
1.43562
2.2564
5.15865
2.71149
4.68934
5.00314
6.30535
1.41029
1.1165
1.0724
4.66207
4.19547
2.09597
0.930828
1.82528
1.44316
1.82832
1.65597
2.81339
1.83432
1.65692
0.928754
3.52235
1.56189
1.25611
3.04282
2.32185
2.42987
2.23541
2.83765
2.99399
1.40382
5.33931
5.14922
2.04938
3.65234
3.58086
5.19792
3.42754
3.22796
2.53337
3.81139
2.57596
1.57458
1.47105
1.93746
2.80249
3.04038
2.17694
2.46669
1.23241
4.29576
1.90019
2.63353
1.33774
1.99682
3.33106
3.46337
1.52174
4.18362
3.23212
3.12419
3.20699
2.34523
5.31759
4.57106
5.52661
4.13867
0.941236
3.41748
1.79366
1.11784
1.76303
2.56006
2.84325
2.52501
2.1973
1.25541
2.46734
3.54545
1.69426
3.92227
1.34392
1.64126
1.31935
3.8696
1.36046
1.3585
3.71948
4.86821
1.30091
1.19569
1.55443
2.38961
1.54108
1.04757
2.18762
3.5134
2.46502
2.18873
2.5899
3.20669
1.79974
2.96507
1.83055
2.18727
3.9139
3.7415
3.9624
4.03067
2.61453
1.91416
3.60889
4.44748
1.35817
4.8604
3.43835
3.84568
1.43864
2.21315
4.39579
2.619
6.37956
1.36765
3.17101
2.16798
2.59595
0.979872
2.94522
1.99108
0.956532
1.38471
1.35047
6.23438
5.93191
4.541
2.7716
3.93719
1.17726
1.98147
1.84213
3.43447
1.47953
1.65001
6.72302
1.53276
2.21067
2.05489
3.22552
3.01946
2.75881
2.88604
2.09615
1.02909
0.89949
1.58315
1.08848
2.05449
5.26141
2.84596
3.38375
1.52011
1.12358
2.19469
3.03277
3.39541
2.55238
2.0562
3.66455
1.70376
6.83057
1.76998
3.89171
6.70662
6.26413
2.4751
1.85397
2.17885
1.54822
1.32745
1.34128
1.97657
3.49898
6.80733
1.55266
2.45148
1.93914
4.44268
1.73463
3.33222
0.706119
0.647917
4.26453
4.63859
2.18095
5.42868
4.541
3.72695
3.12161
1.58163
1.27466
1.66756
1.19293
1.37916
3.12066
2.56107
2.23346
2.45663
1.66669
1.12762
3.92389
2.49068
3.94023
4.10496
1.23207
3.76371
1.78793
2.82568
2.88444
1.72272
0.732773
3.04284
3.11162
1.81219
4.91174
1.13233
3.95948
2.96437
2.84963
1.2334
4.593
3.9012
1.60051
3.11543
2.43517
3.54456
3.77466
4.31289
3.56463
2.42665
2.17498
2.10745
5.42393
1.2583
2.33933
1.13766
1.01306
3.93061
5.36593
3.9008
1.25419
2.43677
1.14062
1.18623
5.50659
2.38128
4.66463
5.799
0.729914
1.4947
3.39492
3.98837
1.75422
1.59318
6.49663
1.86642
1.89038
1.03703
0.918784
0.893726
1.00916
1.89009
1.02082
4.7442
3.79141
1.46019
1.04777
4.08897
1.10615
2.68283
3.00051
3.45189
3.08771
1.71499
1.86837
1.66068
4.90811
1.16156
1.52905
2.56674
1.18406
3.88515
2.84579
1.13591
1.54539
1.55045
3.31575
1.27422
1.42494
3.05536
4.53224
2.55065
6.37541
2.54409
1.10935
1.64713
2.0947
2.1055
2.60772
1.8871
1.27208
2.10622
2.09962
1.69575
4.27291
1.132
1.93124
0.840804
1.53378
1.50853
1.75623
3.76944
2.06462
4.62555
1.11317
1.55354
1.36485
3.64307
3.63432
6.17432
1.42836
0.952422
1.94328
4.23806
2.40871
2.01786
3.2456
1.65283
2.1247
4.72643
2.23841
1.47515
4.01709
2.41176
5.33905
2.2631
2.35041
3.24347
3.96806
1.35349
1.24406
1.07658
5.31748
1.23795
3.64195
3.26995
3.43477
1.24414
2.9193
1.00636
0.845131
2.0871
3.88537
1.01516
2.76915
1.6159
3.51006
6.23469
1.32575
1.53181
1.04209
3.34598
1.75002
4.30376
4.46767
4.88027
2.7401
1.90362
2.91238
2.00123
0.817172
0.737099
5.3921
1.04508
1.98483
2.30742
1.56151
1.68413
3.65358
4.23836
1.8757
2.03
1.06947
5.05067
4.7478
3.07446
2.59352
3.41255
2.11001
2.18695
1.65199
1.71345
2.29354
3.33261
2.34243
2.31306
4.95886
1.12996
2.40329
2.63502
1.29087
1.69673
1.29276
1.38638
1.32067
1.42001
2.1346
2.23739
6.13435
3.16012
2.01209
2.45514
1.72633
1.94126
3.43813
2.46596
3.01654
4.43502
5.00365
1.29562
1.3702
3.74111
1.87299
1.37255
1.46818
1.35548
0.915268
2.00543
4.4506
5.39453
1.99461
2.06669
1.96141
1.33978
1.6756
1.37168
1.94077
2.7755
1.56759
4.4338
4.7609
3.68615
1.07987
2.62109
5.08798
1.91435
1.02089
1.79501
1.71482
5.69327
1.47009
1.59671
1.88028
6.22975
3.36608
1.25634
1.19102
2.34034
2.6662
3.42792
4.21944
1.83191
2.12979
2.52193
2.2516
2.05342
2.26305
4.10178
1.81763
1.60564
3.54329
2.12093
1.92639
1.52402
2.52141
1.37073
1.19061
3.48959
3.34584
1.44184
3.25647
3.98065
1.45227
1.61155
2.81153
6.395
1.18238
2.37038
2.63681
1.91718
1.93517
2.29375
4.02869
4.0455
4.5119
2.77953
4.83569
3.61833
1.9311
1.68711
2.09105
1.11029
1.71767
6.94442
1.34828
2.17367
2.18068
3.87127
1.14514
1.77977
3.52744
1.23475
1.24766
1.91621
1.81071
2.10411
2.47686
4.06022
1.03281
1.62047
0.99331
3.21462
2.41118
3.52608
1.86165
2.5013
5.47397
3.69295
3.31812
1.54616
2.21491
1.5027
1.25782
1.28679
2.09581
1.14405
2.34443
1.13934
1.87317
1.87952
1.00014
5.71983
1.0904
0.849949
2.8366
2.23162
1.05625
1.9775
1.68885
1.62994
1.38477
0.943512
3.05255
3.75911
2.07559
1.3591
1.66582
4.06476
1.48369
4.35655
0.97941
3.92758
3.14925
3.47812
2.27665
4.12174
3.77214
3.35765
2.10714
2.12202
3.41136
3.44813
4.4928
2.03301
3.6393
1.40067
1.31624
1.2083
3.23245
1.78569
4.32973
1.17465
1.17828
2.15311
2.46585
1.94274
5.2813
0.827896
3.52004
1.71647
1.23494
2.32209
3.78918