/*--------------------------------*- C++ -*----------------------------------*\
| =========                 |                                                 |
| \\      /  F ield         | OpenFOAM: The Open Source CFD Toolbox           |
|  \\    /   O peration     | Version:  2212                                  |
|   \\  /    A nd           | Website:  www.openfoam.com                      |
|    \\/     M anipulation  |                                                 |
\*---------------------------------------------------------------------------*/
FoamFile
{
    version     2.0;
    format      ascii;
    arch        "LSB;label=32;scalar=64";
    class       volScalarField;
    location    "10";
    object      nut;
}
// * * * * * * * * * * * * * * * * * * * * * * * * * * * * * * * * * * * * * //

dimensions      [0 2 -1 0 0 0 0];

internalField   nonuniform List<scalar> 
76930
(
0.000902161
0.000899933
0.000750519
0.000779613
0.000722219
0.00101565
0.000791245
0.000792416
0.000764134
0.000815136
0.000566632
0.000900088
0.00105256
0.00110882
0.00118126
0.00116063
0.00111085
0.000963601
0.00110549
0.000872941
0.000985555
0.0010772
0.00106975
0.00103985
0.000835955
0.000837272
0.00097241
0.000804631
0.00107968
0.00105476
0.00083838
0.000855182
0.000877801
0.000889922
0.000918204
0.000690222
0.000854333
0.000918205
0.00106399
0.000902873
0.00103461
0.000763506
0.000729715
0.000790194
0.00106135
0.000729865
0.00126514
0.000991793
0.000929108
0.000865906
0.000814548
0.000786361
0.00114533
0.00110948
0.000875913
0.000717878
0.00088471
0.000887276
0.000897722
0.000887648
0.000910507
0.00112041
0.000780463
0.000749175
0.000966882
0.00115564
0.00116795
0.000719427
0.000737635
0.000961112
0.000872241
0.000841264
0.000849945
0.00105354
0.000825651
0.000701656
0.000919558
0.000929005
0.00120082
0.00079088
0.0010166
0.00077206
0.00083339
0.000923425
0.00110627
0.000979872
0.000846232
0.00121972
0.000966189
0.000805772
0.00160393
0.000710978
0.00107907
0.000950296
0.000883626
0.00104204
0.000961948
0.00105635
0.00074443
0.000757883
0.00157229
0.000853162
0.00137765
0.00153591
0.00111172
0.00111492
0.000824232
0.00100444
0.000995187
0.000855943
0.000851493
0.00172216
0.000945138
0.000751463
0.000821658
0.000969921
0.000865923
0.000832925
0.000824591
0.000845004
0.000827821
0.000810982
0.00104993
0.00089497
0.000971224
0.000859535
0.000929149
0.00100216
0.000889985
0.000765773
0.000730004
0.000775262
0.000989799
0.00124556
0.000891667
0.00104911
0.000866878
0.0011877
0.00125592
0.000967404
0.00105573
0.000939308
0.00120304
0.00108635
0.000974359
0.00115622
0.000699352
0.000710716
0.000897426
0.00106031
0.000872813
0.0009869
0.000894302
0.000862818
0.00131298
0.000827706
0.00100669
0.000931681
0.000967738
0.0010025
0.000790475
0.00107391
0.00109818
0.00075583
0.00103679
0.000818952
0.00108799
0.00110254
0.00115255
0.000991741
0.00100751
0.000879957
0.000765246
0.000999052
0.00105947
0.00110262
0.000818679
0.000710193
0.000764642
0.000743784
0.000981605
0.000976243
0.000898466
0.00123844
0.0010292
0.00110535
0.00113987
0.000787402
0.00107274
0.00104129
0.00104662
0.000997527
0.000917119
0.0010754
0.00103742
0.00101047
0.00091668
0.000781227
0.000928273
0.000841941
0.000893663
0.00118462
0.00108287
0.000755685
0.000905529
0.000903599
0.000954463
0.0010587
0.000825258
0.000935581
0.000816217
0.000867139
0.00107638
0.000704789
0.000730505
0.000696046
0.00130837
0.0010279
0.000872492
0.000739954
0.0010062
0.00102694
0.00104528
0.000857693
0.000811699
0.000898972
0.000856892
0.000996833
0.000788068
0.000845374
0.00117933
0.000894366
0.000833107
0.000996904
0.000923623
0.000908251
0.000857428
0.000775175
0.000970562
0.00107409
0.000725997
0.000969625
0.000974649
0.000777741
0.000766996
0.000861281
0.000852843
0.000765822
0.00075333
0.000936026
0.000736743
0.000812535
0.00123225
0.00130823
0.00111655
0.000745895
0.00114482
0.0010868
0.000920962
0.000813052
0.000944831
0.000856086
0.00111942
0.000779276
0.00101118
0.000787274
0.00111255
0.0010741
0.00123926
0.000890577
0.00101068
0.000931098
0.0010567
0.00119038
0.00102274
0.000851895
0.00100408
0.00111617
0.000794109
0.000738715
0.000727716
0.000761738
0.000741273
0.000870523
0.000946048
0.00095285
0.000889065
0.000841106
0.000955873
0.000916502
0.00116512
0.000871159
0.000768309
0.000783607
0.00111665
0.000859864
0.00126185
0.000823846
0.000762512
0.000921307
0.00115381
0.000996964
0.0010103
0.000987954
0.00100068
0.000911674
0.000842822
0.000888619
0.00117027
0.000825529
0.000764364
0.000718977
0.00093878
0.000861025
0.000932232
0.00100963
0.000756218
0.000851371
0.00112195
0.000868614
0.000793206
0.000762455
0.000814421
0.000905101
0.000825957
0.000808226
0.00110831
0.00106303
0.000871182
0.00102182
0.000998582
0.000888964
0.000822785
0.000762731
0.000835095
0.000872985
0.000904209
0.000808573
0.000946404
0.00106723
0.00102946
0.000908406
0.000917399
0.00103565
0.000983576
0.000816872
0.00108499
0.000913494
0.00107593
0.00119539
0.000766162
0.000653693
0.00114618
0.000997867
0.00105837
0.00101488
0.000907829
0.000801222
0.00101534
0.00110047
0.000769434
0.000952931
0.00103556
0.000757442
0.000839118
0.00109529
0.00110482
0.00113709
0.000739333
0.000896953
0.00111099
0.00108401
0.000937248
0.000878329
0.000837998
0.00106653
0.00103021
0.00123322
0.0010535
0.000879592
0.00119624
0.00112038
0.000978569
0.000900535
0.000797316
0.000924217
0.00103906
0.000995724
0.000938058
0.00104036
0.00091858
0.00139678
0.000891531
0.000877392
0.00120055
0.00106978
0.00075999
0.000772947
0.000948405
0.000862928
0.00115494
0.00127788
0.000749265
0.000905527
0.00098404
0.000928834
0.00105481
0.000943834
0.000858464
0.000908462
0.000925559
0.000853492
0.000810991
0.000871638
0.000848672
0.00114888
0.000770026
0.00142153
0.00140893
0.00094722
0.00100188
0.000862025
0.000871921
0.00081888
0.00106114
0.000837445
0.00104756
0.000829652
0.000765374
0.000985846
0.00106004
0.000889986
0.000652229
0.00110299
0.00105295
0.00116816
0.0009244
0.00100475
0.000840113
0.00083919
0.000784172
0.000906171
0.00119988
0.00109845
0.00113345
0.000874323
0.000774122
0.000994883
0.000928602
0.00105036
0.00100493
0.00155697
0.00138306
0.00109872
0.00122682
0.000719441
0.00145645
0.000824783
0.000828111
0.000793573
0.000779105
0.0010906
0.000832348
0.000970336
0.000848022
0.000936928
0.00092502
0.00113403
0.0010537
0.00094301
0.000762755
0.000949761
0.000980311
0.00071019
0.000752576
0.000829798
0.00108733
0.000986281
0.00112023
0.000736483
0.000869519
0.000879132
0.000790603
0.000961841
0.00114223
0.00122455
0.00109642
0.000769952
0.000871316
0.0010252
0.000898829
0.000915866
0.000684714
0.00108555
0.00101803
0.000905755
0.000842339
0.0008556
0.000807244
0.000818728
0.000678112
0.000925914
0.000807714
0.000690099
0.000910189
0.000915515
0.000705913
0.000854322
0.000904559
0.00114382
0.00120225
0.00117304
0.00089997
0.00110034
0.00104839
0.000732239
0.000798845
0.000708377
0.000959343
0.00100107
0.000891426
0.00122948
0.000965991
0.00112604
0.00109087
0.000854012
0.000815263
0.00086433
0.000839107
0.000767192
0.000729694
0.000857904
0.000782985
0.00085827
0.00102659
0.00128589
0.000796705
0.00118562
0.000901128
0.000982133
0.000980753
0.00152552
0.00113724
0.000891568
0.000810888
0.000675226
0.00116971
0.00107568
0.00120951
0.000894629
0.00113418
0.000991034
0.000876477
0.000754338
0.00110877
0.000759177
0.00100903
0.00105644
0.000701204
0.00069553
0.00106327
0.000973186
0.000842405
0.000886419
0.000756451
0.000986465
0.00111981
0.000896033
0.000898642
0.00102347
0.0011432
0.000841847
0.000907702
0.000854476
0.00094591
0.000793059
0.000842599
0.000908496
0.000846464
0.000983178
0.00102454
0.000778754
0.000782664
0.00108037
0.000860742
0.000888183
0.000897181
0.00129564
0.000754157
0.000974998
0.000820471
0.00117113
0.00119069
0.0010363
0.000828165
0.000893937
0.00103471
0.000965139
0.0008625
0.000786546
0.000854248
0.000806165
0.00114772
0.00118941
0.000848348
0.00115211
0.0011549
0.00092889
0.00072988
0.000794621
0.000845034
0.0011824
0.00096894
0.000929465
0.00108563
0.000961449
0.00085248
0.000813995
0.000997114
0.00105247
0.0007849
0.000717374
0.000849404
0.00100604
0.000969343
0.000860498
0.000744379
0.00106109
0.000980958
0.000773089
0.000715518
0.000906693
0.000839907
0.000803623
0.00083658
0.000848619
0.000784379
0.00122722
0.00110316
0.00116279
0.00097289
0.000979716
0.000847704
0.000866199
0.000855337
0.000869919
0.000773867
0.000916402
0.000936622
0.000833642
0.00101076
0.000924116
0.000717622
0.000778133
0.00106027
0.0010696
0.00111092
0.000855373
0.000813646
0.00106164
0.00102323
0.000964203
0.00103554
0.000731859
0.000776809
0.000824126
0.000800174
0.000810011
0.000812977
0.00121706
0.00105881
0.000710932
0.00116012
0.000828293
0.000771071
0.00114597
0.000911276
0.00119228
0.000858904
0.000900374
0.000917833
0.000834252
0.00103501
0.000970431
0.00112961
0.000670531
0.000785276
0.000954346
0.00108323
0.000803518
0.000966749
0.000676713
0.000696489
0.000824248
0.000907586
0.00111007
0.000828025
0.000815321
0.000762947
0.000741157
0.00100563
0.000863794
0.000829335
0.000964509
0.00109677
0.000990057
0.000791489
0.000786845
0.00103954
0.000893243
0.000986939
0.000956262
0.000997103
0.000966562
0.000834121
0.00083889
0.000835126
0.000849426
0.000869375
0.00125539
0.00133409
0.00128265
0.00124672
0.000806462
0.000779063
0.000896331
0.000810947
0.000923552
0.000849539
0.000795673
0.000969788
0.000998454
0.000855501
0.00123338
0.000937409
0.0010859
0.00107503
0.00107494
0.000922012
0.000875045
0.000756263
0.00123233
0.000764367
0.00123887
0.000958299
0.000908556
0.00106971
0.000784919
0.000824814
0.000781728
0.000691992
0.00115497
0.00120573
0.000821398
0.000972967
0.00117539
0.000882114
0.000983858
0.000919375
0.000747562
0.000770435
0.00092941
0.000747782
0.00104138
0.00127982
0.00110941
0.0007784
0.000846557
0.000639115
0.000986778
0.00106114
0.000754787
0.00110277
0.000925879
0.000978047
0.00104031
0.00115448
0.000963387
0.000953437
0.000880347
0.000837589
0.000945281
0.000788659
0.00112747
0.000811253
0.00112263
0.000656615
0.00106249
0.000942132
0.000745659
0.000812587
0.000761874
0.000719792
0.000902999
0.00117784
0.00104353
0.0010994
0.00106818
0.00101318
0.000712495
0.000946562
0.00091837
0.00092005
0.00104447
0.000965038
0.000953258
0.000847616
0.000773013
0.000954668
0.000945945
0.000787947
0.000761962
0.000828929
0.000996009
0.000753308
0.000668802
0.000795622
0.000757353
0.000745269
0.00094161
0.00071807
0.000866774
0.00107746
0.00111842
0.00108213
0.000901442
0.00130328
0.00119618
0.00124796
0.00119273
0.00122863
0.00117064
0.00111572
0.000616325
0.00080066
0.000879162
0.000774283
0.000861998
0.00093383
0.000709995
0.000858717
0.000894985
0.000861785
0.00132271
0.000992668
0.000797949
0.00116856
0.000902342
0.00106135
0.00102546
0.000905562
0.000976088
0.000753766
0.00090244
0.000856451
0.00106686
0.00101035
0.000905822
0.000954203
0.00106702
0.000752074
0.000677015
0.0010944
0.000683683
0.0011433
0.000870928
0.00104678
0.0011454
0.00114759
0.00105259
0.000968011
0.000717781
0.0007125
0.0011116
0.00107758
0.000591316
0.000684067
0.000756166
0.000798452
0.000738178
0.000833524
0.000998496
0.000879476
0.000965331
0.00081251
0.000788699
0.000856792
0.000764718
0.00103273
0.000978211
0.00113771
0.00096848
0.000821986
0.00107276
0.000754022
0.00100552
0.00101814
0.000939446
0.00116796
0.0011529
0.00107102
0.00100795
0.000883176
0.000887459
0.00107252
0.00122446
0.000877533
0.000847167
0.000764168
0.00101722
0.00106878
0.00103832
0.00104545
0.000902791
0.00123569
0.00115928
0.000797146
0.000763656
0.00110533
0.00100487
0.00120716
0.000798385
0.00104659
0.00102257
0.00116221
0.000996903
0.000931036
0.000892014
0.00129351
0.00127735
0.00136831
0.000796407
0.00117914
0.00101575
0.000886899
0.00106198
0.000958043
0.000946186
0.00106585
0.000764647
0.00090908
0.00101163
0.000980139
0.000791459
0.00109712
0.00072282
0.000855267
0.000970552
0.00108692
0.000883256
0.000913727
0.00120446
0.00130767
0.00079815
0.000867962
0.00100056
0.000852009
0.000898645
0.000733129
0.000913023
0.000956721
0.00105441
0.000897618
0.000993672
0.00120206
0.000832714
0.000781415
0.00086592
0.000841621
0.00116821
0.00112782
0.00101823
0.00124606
0.00116342
0.000848576
0.00125898
0.00113518
0.000952955
0.0010335
0.000958613
0.00110301
0.000772471
0.00106463
0.00110709
0.00089964
0.0013964
0.000839081
0.000837112
0.000902057
0.000804982
0.000631121
0.000823846
0.000871097
0.000834181
0.000939553
0.000754075
0.00134984
0.00134008
0.00135004
0.00102642
0.00113772
0.000714252
0.000872589
0.000775184
0.00112446
0.000984426
0.000762991
0.00126977
0.000813176
0.000563186
0.00091296
0.000891585
0.000779604
0.000936835
0.000974105
0.000809152
0.00074385
0.000726912
0.000787072
0.000787035
0.000930032
0.000991428
0.00118188
0.000998214
0.000807289
0.000756025
0.000936525
0.000763142
0.000749469
0.00090513
0.000905825
0.000989783
0.00081362
0.00102816
0.000882596
0.00102345
0.00133382
0.00143072
0.00104094
0.000864917
0.000763042
0.000730644
0.000744421
0.000777417
0.00108532
0.00115377
0.000965737
0.000851911
0.000979056
0.000725004
0.00112767
0.000968196
0.00101338
0.000849673
0.000846319
0.00116872
0.00110672
0.000956012
0.00117301
0.00122108
0.00104133
0.00094069
0.000843174
0.000836879
0.000666983
0.000806934
0.000833942
0.000714475
0.000788123
0.000885442
0.000944824
0.00072313
0.000723338
0.00129865
0.00110244
0.00096457
0.00118899
0.000604593
0.001017
0.000824262
0.000955874
0.000924542
0.000977918
0.00084698
0.00118333
0.00120491
0.000810828
0.00129191
0.000909973
0.00110109
0.00100414
0.000985923
0.000753312
0.000974403
0.00115321
0.000875031
0.000843468
0.000970335
0.0011044
0.000973024
0.00101997
0.00105751
0.000957684
0.000807684
0.000764721
0.00112662
0.000927309
0.000961338
0.000838879
0.000696192
0.00101798
0.00109899
0.00116072
0.000695013
0.00117945
0.000791888
0.000775055
0.000859133
0.000717203
0.000982583
0.00113891
0.000824674
0.000932667
0.000923499
0.00109057
0.000929614
0.000885086
0.00114863
0.000738068
0.000775635
0.000781138
0.00075844
0.000735731
0.000856285
0.000881014
0.000774518
0.00104541
0.00113298
0.00096225
0.000763317
0.00121827
0.000874784
0.00110604
0.00102617
0.000893524
0.000924173
0.000966875
0.00100335
0.000942767
0.000820526
0.000784673
0.000895173
0.000838243
0.000957218
0.00111853
0.000927059
0.000783224
0.00104334
0.000837761
0.00116048
0.00090863
0.000758614
0.00108836
0.00132158
0.000872836
0.00109982
0.00116161
0.000651853
0.000932505
0.000996211
0.000918022
0.000741019
0.000885908
0.000874041
0.00100449
0.00103109
0.00105126
0.00127269
0.000752885
0.000787885
0.000889499
0.000962344
0.000984934
0.000779526
0.00107245
0.0010759
0.00112223
0.000795912
0.000709933
0.000760557
0.00105921
0.00111463
0.00117275
0.000958935
0.000755687
0.000728674
0.00129183
0.000739263
0.000855135
0.000841742
0.000991873
0.00112402
0.000950083
0.000804057
0.000758709
0.00115187
0.000788573
0.000908006
0.000982744
0.0011371
0.000904948
0.00123268
0.000804045
0.000824656
0.00081286
0.00118107
0.00091188
0.00126774
0.000830976
0.00103415
0.000727406
0.000891731
0.000797957
0.000696585
0.000986139
0.000874559
0.00078319
0.00102122
0.00110316
0.00103265
0.00142137
0.00100932
0.000927579
0.000783057
0.000946036
0.000713878
0.00104293
0.00112899
0.00107734
0.000921345
0.000825197
0.000728701
0.000931795
0.000799969
0.000769072
0.0011515
0.000781593
0.000951263
0.000946504
0.000789753
0.000818231
0.000918165
0.00117838
0.000829624
0.00102866
0.000750017
0.00115467
0.00108762
0.00112129
0.00101781
0.000921178
0.000965272
0.000765971
0.000903128
0.000757887
0.000817653
0.000842038
0.00110948
0.000984493
0.00109222
0.000786647
0.00111134
0.000967237
0.000826401
0.000802853
0.000689433
0.000835789
0.00072833
0.00112107
0.000789563
0.000905468
0.0012484
0.000987658
0.000700075
0.00109141
0.00084193
0.000843793
0.000787872
0.000845554
0.000894668
0.00100489
0.000774565
0.000897731
0.000838265
0.000968185
0.000823858
0.00111819
0.00106941
0.00100515
0.000777113
0.00101851
0.0011646
0.0011557
0.00104991
0.00103093
0.000792814
0.00094179
0.000889031
0.000770051
0.000838904
0.000997678
0.000821922
0.00110452
0.00102915
0.00112479
0.000829839
0.00104202
0.0012118
0.000836873
0.000714686
0.000799929
0.000779659
0.0007939
0.00102068
0.00064737
0.00107845
0.00133571
0.00104118
0.000740259
0.000889912
0.000873599
0.000974013
0.0011419
0.00101676
0.000985159
0.0010584
0.000717261
0.000993625
0.000981935
0.000893909
0.000787062
0.000733292
0.00100643
0.000895347
0.000969611
0.000872127
0.000814115
0.0009379
0.0007373
0.000881652
0.000865863
0.000950078
0.000855832
0.000945519
0.000811713
0.000966132
0.000900277
0.00104652
0.00115932
0.000720131
0.00112082
0.00119326
0.000994708
0.000764685
0.000819161
0.00117777
0.00122739
0.00105928
0.00108732
0.00106435
0.00120949
0.000957032
0.000976886
0.0010222
0.00079193
0.000726389
0.00133771
0.000944563
0.00114812
0.00122749
0.00118626
0.000794318
0.000877582
0.00104514
0.000920869
0.000903614
0.00103943
0.000965663
0.000922991
0.000896037
0.00122487
0.000747106
0.000836248
0.00067153
0.000986123
0.000947674
0.00101414
0.000768886
0.00101458
0.00188119
0.00119895
0.00105827
0.0007218
0.000940946
0.000869883
0.00085675
0.000855121
0.00112685
0.000949132
0.000955774
0.00089067
0.000684621
0.000960446
0.000745588
0.000875069
0.000770079
0.000735409
0.00100404
0.00106888
0.000862622
0.000848817
0.00082216
0.000892737
0.000873009
0.000717129
0.00107061
0.00115808
0.000795488
0.000706471
0.000859694
0.00118091
0.000777903
0.00125192
0.000804394
0.00122342
0.0013411
0.00114349
0.00105462
0.00133758
0.000915993
0.000957387
0.000770731
0.00105867
0.00104428
0.000968692
0.000984625
0.000922961
0.000977949
0.000977721
0.000958431
0.000960273
0.00084967
0.00101845
0.00101876
0.000800287
0.000789712
0.000947794
0.000968644
0.000899836
0.000944516
0.000857765
0.00112881
0.000708751
0.000935745
0.000990837
0.00100451
0.000891956
0.000861977
0.00081853
0.00111301
0.000750687
0.00124798
0.000910447
0.000822507
0.000774053
0.000775617
0.000831509
0.00108751
0.000905894
0.00109324
0.00082186
0.000966075
0.000782954
0.00113418
0.000934204
0.00102335
0.000804972
0.00137158
0.000860801
0.000816785
0.000910269
0.000867192
0.000845108
0.00104417
0.000873083
0.000745274
0.000902381
0.000870972
0.000888485
0.00085659
0.00123973
0.000962133
0.000822506
0.00124292
0.000842603
0.00082204
0.000889926
0.000741356
0.00119172
0.00106753
0.000722467
0.000904008
0.00065504
0.000931456
0.000919076
0.000922059
0.00114208
0.000839822
0.00107734
0.0011484
0.000852682
0.00102098
0.00105994
0.000741411
0.00107528
0.00106096
0.000995791
0.0010422
0.000725164
0.000906525
0.000846464
0.00106727
0.00109052
0.000809094
0.000857589
0.000582345
0.000962062
0.00127853
0.000796015
0.000690901
0.000918049
0.000897688
0.0009525
0.000915382
0.000764161
0.000808383
0.00112431
0.0012161
0.00106306
0.000717647
0.00117514
0.000800895
0.000909866
0.000676471
0.000927422
0.000721101
0.00100406
0.000875495
0.0007852
0.00102623
0.00102748
0.00073266
0.000776912
0.0009784
0.000741796
0.00121428
0.000945792
0.00124245
0.00130227
0.00116553
0.000998533
0.00078358
0.000795668
0.000693206
0.00082234
0.00109967
0.00091616
0.000820208
0.000924212
0.000845719
0.000822407
0.00106342
0.00103907
0.00117406
0.000866949
0.000913477
0.000931835
0.00109317
0.00116081
0.000922632
0.000840411
0.00110884
0.00111392
0.00113228
0.000954918
0.000879147
0.000858245
0.00109925
0.000824423
0.000917297
0.000894834
0.00103166
0.00121187
0.00106448
0.00104573
0.000818109
0.000865441
0.00113184
0.000850558
0.00075765
0.00111699
0.000848522
0.000798933
0.00089069
0.00112863
0.00122357
0.000849438
0.000832891
0.000848455
0.000880844
0.00132046
0.000966968
0.000824025
0.000794996
0.000853806
0.0008773
0.000903837
0.000781494
0.00101686
0.00103192
0.00125828
0.00100029
0.000829562
0.000847088
0.000969388
0.000921239
0.000878912
0.00131329
0.00104177
0.000848917
0.00130254
0.000846034
0.000939456
0.00106036
0.000868335
0.000812647
0.000802627
0.000796266
0.000727385
0.000904936
0.00106746
0.000751171
0.00121128
0.00103217
0.000988741
0.000883869
0.000763929
0.000761345
0.000884687
0.000939919
0.000945843
0.000916256
0.000719287
0.0011594
0.00115403
0.000687535
0.000810031
0.00089153
0.000880778
0.000723689
0.000900255
0.000912918
0.00133532
0.000763627
0.00102204
0.000888945
0.000965415
0.000970044
0.000768877
0.000897569
0.00107067
0.000743744
0.000905665
0.000895036
0.00102353
0.00104389
0.00135428
0.000770822
0.000760851
0.00108597
0.00104211
0.00075618
0.000946813
0.000979788
0.000818185
0.00137489
0.00191349
0.000876079
0.00111197
0.00103379
0.000666112
0.000877014
0.00107244
0.00106619
0.000754804
0.000914896
0.000872579
0.000981188
0.000838145
0.000836726
0.00117278
0.000839759
0.000827287
0.00113889
0.00101104
0.00102078
0.000802271
0.00113603
0.000800988
0.000943351
0.000850208
0.00089337
0.00101006
0.00112783
0.000971452
0.000744432
0.000803142
0.000869911
0.000564878
0.000829423
0.000885814
0.000963364
0.000752469
0.000879886
0.000828483
0.000892442
0.000639731
0.000753509
0.00062172
0.00092691
0.000956989
0.000852958
0.001027
0.000798674
0.000767398
0.000935548
0.000882157
0.000957587
0.000827602
0.00120858
0.00115235
0.000930913
0.000879946
0.00101452
0.000893712
0.000769735
0.000902893
0.00119436
0.00071375
0.00112211
0.00116169
0.00088971
0.000886895
0.00109496
0.000922533
0.000846754
0.000905422
0.000826634
0.000873383
0.000772952
0.000990435
0.000927033
0.000938996
0.00086498
0.000928895
0.00104158
0.00131216
0.00085645
0.00114487
0.00107953
0.000763077
0.000942119
0.000889827
0.000886929
0.00116292
0.00115551
0.000805267
0.000890128
0.000989258
0.00104988
0.000831453
0.00109506
0.00111241
0.000715665
0.000960557
0.000757423
0.00110749
0.000960354
0.000922128
0.000779911
0.000798901
0.000785685
0.000917035
0.00110896
0.00104808
0.00120077
0.000848903
0.000993068
0.00101169
0.000990724
0.000906005
0.000904813
0.000741923
0.00086391
0.00072134
0.000707447
0.000718081
0.00106399
0.00108293
0.00108642
0.000886109
0.000981811
0.00132972
0.000767205
0.000868111
0.00102078
0.00105554
0.000875291
0.000730448
0.000857474
0.000732018
0.000792349
0.000789451
0.00121706
0.00104805
0.000931696
0.000882302
0.000892665
0.00117064
0.000831349
0.000732548
0.00109062
0.000842593
0.000861428
0.000842848
0.000915798
0.00109878
0.000914728
0.000901792
0.000780263
0.0010949
0.00114766
0.000920763
0.000964308
0.000768616
0.000891811
0.000832757
0.00109126
0.00108731
0.00102887
0.000969738
0.000764946
0.00097974
0.00104391
0.0009115
0.000829362
0.00088637
0.00111953
0.00120472
0.000938379
0.000833185
0.000853724
0.00122675
0.00108847
0.000911185
0.000939051
0.00073346
0.000893011
0.000908096
0.00104941
0.00120843
0.000927964
0.000969677
0.000901218
0.000742495
0.000987872
0.00133819
0.00129657
0.00106093
0.000700569
0.000912395
0.000785716
0.00111506
0.00119485
0.000933295
0.000684238
0.000922441
0.00110258
0.00101247
0.00100892
0.00103112
0.00109695
0.00115251
0.000953166
0.000691386
0.00103245
0.000922617
0.000744272
0.000930959
0.000951604
0.000797948
0.000787824
0.000788978
0.000821396
0.00117349
0.00109958
0.00102961
0.000724005
0.000883152
0.00082608
0.000703596
0.000969631
0.00075275
0.000802815
0.000926247
0.000968044
0.000885675
0.00120268
0.00110169
0.00116123
0.000848584
0.00157349
0.000898536
0.000890076
0.00105899
0.000781997
0.000804358
0.00203904
0.0011
0.000659636
0.000985831
0.00153475
0.000998642
0.00136798
0.00105976
0.000785708
0.000828092
0.000840672
0.000966488
0.000883954
0.000947013
0.00101417
0.000875202
0.000962939
0.000843596
0.00122833
0.000737283
0.000877915
0.00102294
0.00131292
0.00086696
0.00090355
0.00150109
0.00100154
0.00107758
0.00094488
0.000867612
0.000959169
0.000862588
0.000706022
0.000709349
0.000989915
0.00124089
0.000821608
0.000859053
0.000834841
0.000754669
0.000772304
0.000982815
0.0010279
0.000988357
0.00107208
0.00100276
0.000892021
0.000878844
0.000925651
0.000982653
0.000988228
0.000969791
0.000868675
0.000828475
0.00129138
0.000737978
0.000788563
0.000903599
0.000808896
0.000664159
0.000765124
0.000823516
0.000780848
0.000873733
0.00130972
0.000907796
0.00110449
0.00083611
0.000858991
0.000878436
0.00097833
0.000832245
0.000837843
0.00103374
0.00120209
0.000726381
0.00102436
0.000749895
0.000780738
0.000857686
0.000793054
0.0012284
0.0015154
0.00122817
0.000833658
0.00163271
0.000857064
0.000956244
0.000847569
0.000866405
0.000871753
0.000888469
0.000832346
0.00107914
0.0011464
0.000856776
0.000788875
0.00124361
0.000702805
0.000814451
0.000680121
0.000925097
0.00081938
0.000760149
0.000714564
0.00103072
0.000868235
0.000743305
0.00099029
0.000932344
0.000894926
0.000742322
0.00111003
0.00116816
0.000873592
0.00106492
0.000865615
0.00100046
0.000787391
0.000831547
0.000833444
0.000801632
0.00125335
0.000779296
0.000671421
0.000734516
0.000780022
0.000869048
0.000877062
0.00104412
0.00099231
0.00103408
0.000871841
0.00137085
0.000853077
0.00114517
0.000935233
0.00148634
0.0010595
0.000969762
0.000673328
0.00102112
0.00113945
0.000993813
0.00107568
0.000877372
0.000878701
0.00104318
0.000787752
0.000871601
0.000989503
0.000918478
0.00085923
0.000835671
0.00112604
0.000962829
0.00140344
0.00111471
0.00105106
0.000837178
0.000881474
0.000918797
0.00101698
0.00123705
0.00117784
0.00113987
0.000911017
0.000997839
0.000737745
0.000907415
0.000821237
0.000898146
0.00093032
0.000593937
0.00109441
0.000739015
0.000850703
0.00090508
0.000838865
0.00127573
0.000973994
0.000824037
0.00144263
0.000923592
0.0012198
0.00103336
0.000990451
0.000961977
0.00123426
0.000999911
0.000901766
0.000792376
0.00089095
0.00101351
0.000772042
0.000768341
0.000829121
0.00097874
0.000925265
0.00101293
0.000964946
0.00117694
0.00115885
0.00117086
0.000848589
0.000777145
0.00125876
0.000932248
0.000726495
0.000793811
0.000878052
0.00089255
0.00119309
0.00102862
0.00121981
0.000996196
0.00117267
0.000753107
0.000953574
0.00118046
0.00105352
0.000843603
0.00108267
0.00121416
0.000861601
0.00133162
0.00150256
0.000711071
0.000938819
0.000995564
0.000780617
0.0011672
0.000944939
0.000988591
0.00095268
0.00105556
0.000659793
0.00083323
0.000976738
0.00115762
0.000662629
0.000854979
0.000748227
0.000981525
0.000976484
0.000782131
0.000975993
0.00109827
0.00118895
0.000769641
0.000839591
0.000798191
0.000734213
0.000977513
0.000856851
0.000823376
0.000718564
0.000797586
0.000972327
0.00072182
0.000602387
0.00316826
0.00422432
0.00246336
0.00315312
0.00349629
0.00451113
0.00188568
0.00242433
0.00372748
0.00265787
0.00253238
0.00442772
0.00329957
0.00363412
0.0056648
0.0069123
0.00662483
0.00665674
0.00666335
0.00305368
0.00760021
0.00529593
0.00410804
0.00416327
0.00381051
0.00353638
0.00644351
0.00390788
0.00562398
0.00660816
0.00359984
0.0039264
0.00287766
0.00310774
0.00359429
0.00149522
0.00365956
0.00431234
0.00600385
0.00411061
0.00753405
0.00322368
0.00283352
0.00349512
0.00571687
0.0018496
0.00589831
0.00369641
0.003968
0.00535462
0.00337315
0.0018663
0.00479624
0.00409244
0.0067139
0.00259424
0.00483708
0.00323148
0.00350212
0.00673946
0.00663906
0.00498907
0.0030843
0.00267912
0.00305588
0.00592204
0.00640531
0.00151439
0.00174838
0.00336285
0.00340303
0.00226572
0.00544926
0.00380414
0.00517294
0.00328631
0.00576284
0.00332134
0.00771704
0.00314507
0.00423758
0.00442591
0.00356635
0.00271136
0.00324243
0.00838954
0.00224386
0.00840574
0.00332773
0.00671063
0.00990278
0.00283382
0.00527861
0.00440828
0.00398158
0.00366038
0.00499303
0.00611539
0.00227915
0.0036469
0.00788074
0.00347456
0.00843419
0.00867735
0.0037253
0.0045562
0.00316162
0.00573741
0.00626599
0.00270822
0.00378149
0.00844922
0.00479101
0.00297724
0.00414897
0.00444151
0.00316011
0.0028158
0.00387637
0.00676476
0.00379971
0.00281154
0.00784781
0.00461058
0.00432399
0.00345402
0.00417334
0.00713832
0.00457268
0.00508987
0.00218229
0.00199136
0.00670295
0.00948895
0.00168257
0.00292155
0.00328948
0.00376375
0.00772387
0.00289284
0.00441861
0.00468731
0.00687953
0.00380097
0.00548442
0.00360482
0.00218705
0.00226011
0.00459351
0.00425595
0.00327335
0.00218965
0.00425885
0.00373011
0.00847172
0.004515
0.00522205
0.00392548
0.00332195
0.00646462
0.00264546
0.00716464
0.00635282
0.00300735
0.00371115
0.00351955
0.00822569
0.00382383
0.00341927
0.00492656
0.00595514
0.00423702
0.00464236
0.00398049
0.0043312
0.00404943
0.00352461
0.00344803
0.00366825
0.003603
0.0041091
0.00320314
0.00176613
0.00873933
0.00700577
0.00583959
0.00578922
0.00157797
0.00548797
0.00436035
0.00392946
0.00433486
0.00449143
0.00315051
0.00718501
0.00364972
0.00321928
0.00306917
0.00301205
0.0033226
0.00459549
0.00473101
0.00789425
0.00492016
0.00419972
0.00429051
0.00511349
0.00505025
0.00261003
0.00482722
0.00306703
0.00557798
0.00555095
0.00222797
0.0028927
0.00200428
0.00795937
0.00428246
0.00369281
0.0015922
0.00701759
0.00363248
0.00357045
0.0059935
0.00439477
0.00367643
0.00297855
0.00368072
0.00379348
0.00328071
0.0060482
0.00348302
0.00575983
0.00834015
0.00264965
0.00258619
0.00223126
0.00187656
0.00342307
0.00287597
0.00282135
0.0051933
0.00596554
0.0022574
0.00311266
0.00404886
0.00206566
0.00397669
0.00330375
0.00438929
0.0031967
0.00495448
0.00525043
0.0104723
0.0081991
0.00324383
0.00489119
0.00532658
0.00482855
0.00121152
0.0038308
0.00290386
0.00483067
0.00314074
0.00238313
0.00503469
0.00718667
0.00642449
0.00954306
0.00518986
0.00543299
0.00235744
0.00337614
0.00618397
0.00497974
0.00344158
0.0071741
0.00408737
0.00583206
0.00271672
0.00298002
0.00287371
0.00278485
0.00356046
0.00523554
0.00522457
0.00436264
0.00192113
0.00210388
0.00293535
0.00757188
0.00466938
0.00277151
0.00389183
0.00316239
0.00276963
0.0049844
0.00380206
0.0028509
0.00365111
0.00715643
0.00282584
0.0031838
0.00287313
0.00443288
0.00534693
0.00334748
0.00467617
0.00833615
0.00281475
0.00180569
0.00284054
0.00518212
0.00237687
0.00294624
0.00446741
0.00202721
0.00267337
0.00223031
0.00303079
0.00256415
0.00274945
0.00267632
0.00538878
0.00368951
0.00503407
0.00530776
0.00702282
0.00483884
0.00526949
0.00526555
0.00233976
0.00477176
0.0034531
0.00817372
0.00671783