/*--------------------------------*- C++ -*----------------------------------*\
| =========                 |                                                 |
| \\      /  F ield         | OpenFOAM: The Open Source CFD Toolbox           |
|  \\    /   O peration     | Version:  2212                                  |
|   \\  /    A nd           | Website:  www.openfoam.com                      |
|    \\/     M anipulation  |                                                 |
\*---------------------------------------------------------------------------*/
FoamFile
{
    version     2.0;
    format      ascii;
    arch        "LSB;label=32;scalar=64";
    class       volScalarField;
    location    "10";
    object      p;
}
// * * * * * * * * * * * * * * * * * * * * * * * * * * * * * * * * * * * * * //

dimensions      [0 2 -2 0 0 0 0];

internalField   nonuniform List<scalar> 
76930
(
-207.134
-208.472
-177.098
-149.637
-169.516
-158.529
-182.957
-154.746
-184.099
-178.153
-86.6218
-161.751
-207.216
-194.293
-198.542
-158.331
-167.633
-148.505
-169.872
-98.1606
-93.6665
-132.727
-89.5883
-102.408
-65.728
-63.9722
-103.749
-95.8077
-164.494
-163.714
-57.0803
-146.861
-167.503
-121.652
-157.286
-116.284
-148.528
-160.709
-73.067
-140.999
-100.087
-143.564
-152.553
-188.402
-114.433
-134.01
-188.378
-131.671
-119.761
-148.393
-119.868
-81.678
-146.834
-122.698
-166.678
-165.203
-90.3737
-149.455
-152.953
-119.388
-167.338
-175.501
-148.99
-157.514
-110.542
-188.959
-181.586
-112.326
-114.796
-191.381
-109.19
-116.192
-110.007
-174.477
-110.575
-151.046
-139.121
-80.2399
-56.4176
-197.321
-198.508
-153.112
-91.8718
-154.028
-145.032
-80.2974
-143.334
-94.4171
-124.135
-63.531
-81.6825
-159.53
-145.381
-159.933
-191.559
-170.907
-140.873
-185.01
-146.689
-148.334
-268.331
-111.658
-217.928
-230.869
-154.777
-144.467
-126.073
-127.843
-128.409
-112.657
-151.722
-271.655
-107.426
-120.608
-137.58
-139.351
-69.3279
-125.451
-161.129
-99.7882
-127.519
-151.463
-104.083
-79.1113
-89.8784
-88.0085
-98.2246
-120.819
-117.232
-104.454
-122.138
-133.846
-141.595
-164.38
-188.034
-185.706
-62.1707
-114.111
-145.677
-197.969
-157.924
-139.479
-187.342
-179.599
-132.491
-119.071
-109.723
-165.992
-129.616
-158.534
-158.74
-190.375
-155.905
-208.012
-211.031
-146.469
-179.711
-133.011
-135.563
-140.063
-95.4828
-110.774
-221.233
-151.867
-143.178
-65.536
-200.142
-144.866
-163.76
-139.3
-130.442
-175.728
-119.724
-107.905
-112.534
-108.896
-155.209
-144.345
-88.9636
-88.9217
-174.665
-183.757
-155.453
-179.385
-69.1683
-136.167
-173.312
-140.816
-155.575
-150.621
-149.527
-116.714
-138.789
-130.309
-138.87
-145.344
-148.427
-188.488
-117.175
-151.229
-172.425
-185.196
-133.694
-179.107
-131.994
-155.27
-164.142
-150.498
-127.512
-159.831
-128.552
-123.425
-174.728
-126.127
-95.6272
-115.798
-146.335
-156.264
-143.03
-156.199
-129.524
-135.702
-171.716
-95.5831
-135.218
-124.029
-146.828
-185.89
-69.8282
-127.455
-152.925
-182.209
-117.445
-116.703
-164.331
-101.084
-101.513
-181.531
-111.668
-148.32
-153.689
-201.316
-159.376
-165.676
-131.487
-137.412
-144.031
-182.815
-173.289
-162.497
-146.455
-83.8004
-211.559
-63.8746
-76.128
-183.148
-142.038
-138.033
-73.0383
-110.514
-113.218
-160.824
-85.5346
-147.365
-99.5394
-176.757
-105.644
-136.274
-90.4923
-151.11
-96.606
-167.189
-143.478
-135.033
-114.423
-118.311
-71.9874
-181.005
-125.458
-111.799
-166.558
-155.023
-138.637
-137.823
-170.43
-90.1429
-97.1888
-144.501
-193.233
-174.439
-147.849
-58.736
-94.5626
-127.599
-174.588
-179.978
-207.667
-137.848
-146.289
-172.415
-178.648
-107.609
-117.095
-102.689
-110.993
-168.127
-160.22
-128.556
-112.194
-152.34
-172.668
-138.998
-94.108
-170.453
-168.512
-211.795
-123.938
-130.013
-143.371
-132.967
-126.184
-119.39
-155.759
-182.147
-203.441
-169.786
-111.333
-138.338
-139.267
-112.307
-130.854
-117.181
-126.364
-115.31
-78.7608
-93.986
-150.06
-123.588
-184.086
-105.611
-115.936
-119.541
-162.057
-204.854
-156.447
-146.995
-122.329
-174.604
-139.908
-129.334
-180.186
-123.404
-84.5289
-150.699
-175.237
-125.444
-142.134
-146.522
-106.18
-139.869
-153.511
-114.56
-116.517
-175.215
-132.167
-149.555
-153.171
-188.477
-118.823
-153.02
-141.274
-164.574
-148.957
-115.471
-121.774
-132.574
-126.344
-153.756
-124.959
-171.562
-57.7316
-276.899
-120.584
-121.522
-123.887
-166.369
-81.4643
-190.601
-163.003
-192.549
-168.855
-248.989
-196.966
-155.636
-152.325
-142.154
-100.57
-88.0208
-151.052
-141.266
-101.277
-176.73
-159.364
-90.8113
-93.913
-105.329
-104.842
-160.977
-138.202
-147.312
-160.314
-85.6872
-168.759
-167.892
-124.611
-171.042
-149.311
-80.018
-82.8399
-223.995
-200.597
-121.31
-138.352
-178.083
-149.649
-135.603
-118.989
-148.833
-108.006
-122.532
-136.413
-177.499
-56.8021
-150.002
-72.7214
-79.204
-149.993
-166.92
-175.572
-121.354
-128.494
-183.72
-144.8
-155.419
-102.865
-147.779
-128.565
-75.7839
-117.505
-157.903
-103.447
-205.338
-178.585
-132.637
-137.783
-152.879
-259.574
-162.393
-132.901
-219.74
-125.81
-207.992
-168.634
-138.067
-136.008
-91.9244
-107.52
-75.8019
-171.717
-148.673
-149.938
-171.898
-142.127
-168.654
-165.228
-183.844
-83.3558
-100.7
-144.002
-106.57
-175.898
-122.934
-162.42
-168.596
-129.597
-118.917
-75.1468
-167.84
-103.07
-161.009
-111.055
-108.656
-106.261
-133.794
-119.757
-167.79
-146.724
-151.437
-96.9
-101.586
-113.274
-161.493
-98.9499
-132.512
-103.871
-89.2075
-93.5441
-137.432
-138.009
-165.806
-155.015
-190.033
-120.597
-174.408
-158.672
-168.996
-73.7037
-153.589
-154.913
-176.52
-154.282
-162.768
-184.773
-89.4972
-163.901
-105.063
-82.2267
-92.3638
-81.1669
-154.581
-146.322
-133.588
-156.394
-170.559
-162.613
-114.658
-189.297
-162.536
-137.283
-135.357
-256.453
-75.779
-184.213
-101.192
-183.083
-74.9467
-165.72
-162.148
-144.586
-142.225
-120.8
-97.1136
-177.64
-117.254
-120.042
-163.1
-183.828
-174.981
-158.378
-120.583
-150.119
-101.661
-117.376
-106.383
-182.811
-188.366
-110.223
-138.884
-136.662
-223.997
-126.701
-160.686
-114.307
-108.246
-160.109
-163.397
-155.431
-129.734
-156.936
-161.868
-154.124
-165.746
-172.542
-111.364
-181.08
-78.366
-105.055
-98.9814
-59.7888
-159.539
-125.106
-180.175
-165.719
-135.941
-78.4549
-99.7232
-130.893
-136.57
-81.2209
-132.765
-167.976
-109.923
-152.649
-153.131
-169.218
-225.8
-163.872
-94.4647
-139.499
-162.753
-162.521
-101.211
-129.241
-142.945
-90.3901
-119.41
-191.758
-186.891
-99.1419
-186.165
-165.68
-61.5386
-66.5876
-127.892
-135.443
-187.61
-161.185
-180.744
-140.601
-145.439
-150.293
-125.28
-127.211
-140.866
-123.452
-164.232
-140.459
-114.472
-117.29
-240.876
-179.058
-95.1172
-69.1214
-126.051
-100.499
-146.317
-165.021
-92.8342
-123.717
-133.719
-107.616
-119.052
-157.047
-155.078
-151.679
-136.199
-162.368
-163.654
-83.4373
-159.897
-191.713
-199.398
-224.505
-100.37
-96.5099
-176.667
-165.946
-162.467
-97.831
-137.442
-191.086
-131.024
-111.646
-124.259
-148.451
-84.7934
-200.333
-110.764
-126.544
-128.535
-182.62
-143.522
-99.5378
-76.0725
-178.278
-107.2
-167.374
-152.709
-115.155
-112.908
-106.455
-114.405
-127.841
-154.256
-130.823
-183.492
-93.5518
-123.024
-144.845
-110.406
-167.425
-150.435
-77.3467
-91.5769
-76.0373
-72.8294
-127.877
-135.636
-201.533
-160.391
-137.104
-119.832
-87.4501
-104.097
-83.8414
-154.244
-140.395
-143.84
-167.497
-179.29
-177.01
-125.187
-114.125
-70.2138
-78.9395
-117.133
-107.087
-148.119
-115.807
-109.01
-105.866
-105.498
-137.217
-161.339
-174.033
-112.369
-164.932
-207.446
-184.104
-176.52
-176.749
-181.751
-124.716
-207.209
-86.2469
-105.199
-167.436
-95.0835
-140.925
-108.768
-152.028
-66.4278
-56.3487
-73.3931
-176
-152.637
-149.911
-180.156
-159.514
-127.807
-180.846
-105.433
-99.6586
-78.1718
-212.029
-160.247
-105.159
-96.4919
-114.495
-199.19
-92.7007
-125.908
-160.919
-134.803
-113.888
-155.682
-159.625
-147.308
-170.773
-89.9505
-157.244
-276.8
-122.08
-165.639
-135.804
-178.554
-131.701
-131.108
-114.861
-108.322
-178.517
-174.79
-164.481
-167.275
-103.107
-178.536
-112.602
-110.933
-121.925
-152.034
-157.033
-151.211
-159.289
-128.918
-189.2
-118.409
-118.884
-139.942
-173.749
-141.528
-144.299
-131.957
-183.37
-108.627
-141.779
-112.503
-88.5861
-94.3596
-150.856
-142.455
-149.726
-153.847
-199.633
-196.546
-184.096
-170.024
-200.769
-174.227
-232.766
-168.821
-182.822
-147.261
-128.914
-101.356
-105.865
-166.086
-135.993
-117.669
-116.571
-138.886
-182.86
-179.717
-99.49
-81.1149
-105.073
-174.457
-137.343
-112.045
-131.111
-143.773
-90.9819
-113.418
-144.174
-177.113
-161.946
-110.649
-100.367
-91.1462
-114.565
-93.7509
-174.827
-123.035
-150.008
-61.258
-172.513
-103.054
-106.56
-129.571
-124.754
-85.9769
-141.956
-182.206
-163.906
-139.775
-140.948
-152.246
-106.452
-136.553
-129.673
-129.79
-174.973
-233.8
-115.799
-96.7268
-182.468
-112.185
-147.223
-156.288
-167.348
-113.868
-149.456
-114.313
-192.843
-110.339
-90.867
-101.176
-113.739
-172.751
-175.137
-168.782
-132.497
-112.587
-120.945
-132.036
-163.407
-181.721
-117.686
-210.931
-155.465
-172.391
-176.891
-123.507
-150.839
-136.443
-210.457
-91.6134
-166.071
-161.545
-164.587
-121.282
-240.485
-146.69
-127.365
-102.05
-216.387
-187.998
-218.277
-132.453
-128.844
-131.17
-168.195
-102.609
-135.172
-109.624
-109.013
-143.369
-165.055
-142.426
-196.583
-79.9267
-141.791
-201.684
-131.682
-88.7705
-133.453
-114.417
-105.125
-117
-58.4292
-119.327
-193.99
-192.198
-138.243
-160.07
-162.421
-166.88
-151.748
-169.227
-155.689
-186.009
-91.3046
-142.834
-163.818
-129.633
-111.113
-84.381
-118.9
-137.141
-135.86
-150.532
-154.358
-149.401
-167.642
-145.134
-146.501
-92.5395
-120
-100.085
-101.939
-132.62
-131.51
-172.253
-115.466
-104.8
-174.55
-151.666
-104.63
-76.279
-111.022
-92.9611
-107.815
-176.047
-137.392
-186.366
-131.024
-172.141
-85.2259
-92.1869
-200.762
-216.72
-205.029
-144.919
-162.113
-182.848
-95.2423
-99.5635
-158.277
-83.5274
-156.896
-132.948
-154.543
-130.59
-108.808
-162.003
-156.403
-83.7092
-123.424
-142.515
-131.661
-104.123
-169.629
-119.451
-168.417
-259.71
-93.9443
-155.578
-200.455
-74.4203
-101.309
-162.627
-148.143
-116.598
-170.345
-104.415
-139.549
-140.994
-90.4972
-86.1044
-120.418
-74.0349
-156.658
-159.111
-172.312
-177.509
-96.1619
-135.688
-64.8428
-166.156
-181.948
-150.5
-138.161
-180.084
-168.688
-118.017
-115.598
-146.428
-128.88
-55.1815
-99.6718
-191.753
-172.53
-140.253
-140.859
-162.953
-111.96
-129.299
-101.307
-150.795
-181.028
-153.162
-155.863
-120.02
-123.391
-175.665
-204.534
-167.458
-241.92
-83.5493
-92.5749
-175.718
-179.794
-160.858
-128.369
-111.727
-172.481
-171.926
-114.834
-201.266
-172.448
-67.6204
-131.391
-130.304
-83.7782
-145.473
-90.5355
-136.952
-125.226
-43.1247
-142.586
-126.258
-204.306
-149.664
-99.3475
-149.147
-162.999
-84.2915
-169.128
-92.8287
-114.262
-159.761
-110.75
-70.4049
-149.885
-131.535
-115.039
-157.224
-145.688
-89.518
-148.531
-162.209
-120.844
-105.071
-148.628
-170.546
-129.598
-129.136
-115.244
-83.9248
-62.5422
-150.909
-129.453
-137.772
-130.232
-172.641
-119.108
-76.1308
-98.5886
-163.884
-177.514
-162.64
-148.726
-121.781
-98.9251
-155.034
-129.577
-165.306
-153.366
-156.932
-162.69
-67.2906
-111.225
-117.596
-127.511
-101.991
-172.268
-72.2218
-155.598
-130.376
-128.591
-77.9333
-174.296
-156.019
-179.087
-126.861
-173.337
-97.0957
-161.589
-70.4105
-82.0809
-193.375
-170.54
-164.167
-113.14
-155.632
-143.888
-155.961
-137.77
-212.756
-134.231
-139.827
-109.444
-112.729
-104.079
-116.402
-169.646
-143.045
-126.257
-100.186
-158.778
-169.869
-153.074
-164.411
-95.4622
-142.051
-167.788
-162.08
-177.517
-159.044
-89.3356
-81.2613
-92.0442
-145.524
-128.581
-88.1971
-162.418
-165.933
-126.767
-94.8055
-128.961
-160.471
-137.671
-143.585
-127.537
-135.393
-100.248
-145.363
-142.995
-160.907
-168.432
-213.459
-164.632
-103.108
-189.996
-98.6067
-131.25
-182.211
-120.02
-108.4
-169.526
-127.135
-87.0095
-131.025
-163.858
-106.74
-98.8655
-157.283
-164.176
-89.3364
-89.0206
-174.804
-132.076
-83.4697
-169.983
-111.459
-105.465
-112.196
-130.345
-139.067
-138.199
-155.233
-150.98
-109.432
-140.893
-132.127
-173.17
-170.366
-123.585
-124.064
-98.6088
-185.082
-105.298
-189.529
-80.001
-112.292
-84.6278
-85.4194
-141.59
-130.539
-185.373
-126.249
-174.018
-138.382
-190.174
-156.28
-204.268
-77.9207
-142.459
-113.595
-173.11
-175.951
-109.093
-96.3299
-166.256
-159.311
-169.977
-188.64
-178.415
-126.473
-128.121
-117.308
-120.588
-63.2256
-104.482
-97.7184
-139.005
-170.661
-176.267
-186.523
-199.861
-130.653
-186.604
-145.468
-130.059
-121.019
-100.218
-147.713
-91.7423
-109.548
-163.828
-147.254
-189.073
-153.891
-151.894
-140.201
-126.678
-172.358
-128.35
-151.875
-105.156
-158.303
-130.619
-154.956
-139.74
-92.7466
-93.9601
-164.071
-107.665
-111.082
-152.68
-101.839
-126.207
-145.801
-160.93
-191.35
-89.508
-89.0646
-78.1315
-196.324
-174.758
-115.42
-128.255
-140.106
-104.672
-113.159
-117.486
-174.909
-168.684
-155.714
-178.175
-107.381
-97.4119
-143.991
-178.657
-161.204
-63.1575
-112.713
-127.108
-144.091
-87.4033
-112.729
-139.096
-136.122
-213.893
-64.6459
-68.5693
-200.257
-212.786
-130.591
-116.78
-122.324
-213.915
-115.032
-129.438
-118.899
-155.623
-160.829
-82.7836
-137.625
-157.91
-167.613
-133.817
-178.167
-181.744
-156.422
-117.391
-129.665
-117.972
-130.081
-177.979
-95.07
-221.7
-82.2297
-157.367
-77.4657
-163.587
-65.4841
-103.913
-152.544
-191.208
-72.2262
-144.348
-92.377
-149.841
-149.91
-71.0617
-115.053
-116.324
-167.856
-142.212
-123.885
-199.16
-166.942
-176.96
-170.817
-103.756
-121.895
-124.132
-175.033
-98.289
-120.905
-135.45
-142.952
-157.471
-170.108
-104.409
-173.623
-83.2223
-186.872
-98.0024
-202.916
-118.254
-133.18
-113.764
-101.812
-119.109
-173.925
-153.478
-182.283
-149.095
-85.7895
-131.52
-157.229
-171.624
-138.432
-134.132
-167.264
-170.734
-129.807
-96.8669
-141.54
-103.436
-126.575
-146.095
-123.845
-119.583
-112.063
-177.591
-188.482
-162.298
-84.1046
-102.167
-140.706
-163.984
-100.754
-228.452
-202.912
-179.237
-112.937
-134.663
-169.197
-131.785
-87.7549
-151.898
-170.908
-102.672
-110.221
-124.203
-74.6704
-164.887
-142.947
-167.97
-155.907
-143.46
-172.954
-150.529
-135.403
-122.76
-135.768
-141.761
-144.154
-143.379
-108.468
-145.375
-153.642
-108.312
-102.554
-155.713
-108.873
-106.509
-110.16
-208.042
-202.27
-89.145
-83.0212
-63.6233
-192.169
-118.158
-174.807
-157.988
-190.807
-95.5539
-154.43
-158.216
-113.648
-199.065
-168.204
-114.241
-160.931
-163.46
-110.559
-106.023
-149.629
-87.6446
-99.6323
-140.006
-117.777
-112.586
-128.556
-152.464
-149.452
-136.146
-132.32
-133.384
-141.439
-157.067
-106.753
-150.762
-112.056
-113.574
-76.967
-137.181
-115.327
-114.362
-86.594
-92.3559
-173.215
-157.562
-124.143
-164.853
-69.4376
-159.676
-142.617
-147.311
-75.3361
-87.0993
-147.802
-178.176
-108.005
-128.045
-86
-74.3193
-140.195
-149.253
-146.845
-149.783
-98.9027
-86.9324
-94.5053
-167.299
-96.8016
-87.9026
-125.702
-125.904
-128.692
-81.2758
-189.312
-180.972
-155.333
-167.397
-141.999
-130.152
-130.561
-207.074
-186.643
-119.092
-102.433
-93.0297
-150.124
-116.004
-195.474
-155.906
-150.75
-160.297
-128.323
-109.498
-179.478
-187.188
-118.13
-154.277
-165.502
-196.189
-204.087
-218.119
-105.306
-100.879
-216.301
-172.972
-166.222
-169.562
-133.958
-165.091
-188.453
-138.68
-135.629
-125.112
-108.379
-136.785
-194.903
-148.722
-157.81
-95.5836
-99.2534
-188.74
-186.187
-101.975
-110.144
-157.416
-62.2034
-83.7419
-90.1572
-129.702
-149.457
-131.64
-116.081
-156.95
-151.457
-188.334
-117.864
-164.248
-164.991
-130.516
-113.926
-128.619
-124.589
-129.496
-58.9691
-171.469
-161.265
-161.799
-147.444
-177.678
-166.378
-119.131
-124.225
-135.107
-163.952
-151.397
-149.452
-150.934
-96.6318
-92.0139
-148.856
-162.827
-167.982
-180.822
-126.646
-187.163
-109.019
-135.058
-106.003
-175.787
-237.077
-192.427
-171.52
-156.585
-115.795
-84.9759
-72.5523
-162.005
-161.614
-123.843
-67.6182
-115.863
-196.014
-182.798
-114.301
-148.467
-61.3209
-121.424
-163.987
-135.843
-99.464
-125.75
-114.165
-123.087
-163.157
-146.734
-144.176
-70.443
-160.68
-89.0637
-144.858
-144.779
-118.196
-138.232
-134.421
-139.874
-108.297
-116.137
-115.488
-171.589
-130.063
-117.782
-256.511
-122.566
-126.883
-70.268
-170.656
-171.106
-164.958
-83.1024
-126.835
-204.61
-145.241
-79.2543
-141.889
-120.458
-198.014
-80.1933
-143.718
-127.396
-135.061
-104.341
-136.966
-144.697
-189.335
-121.052
-157.338
-173.112
-86.0605
-86.0638
-135.161
-146.838
-133.1
-134.644
-177.53
-190.363
-169.459
-191.174
-177.109
-204.757
-120.377
-102.914
-174.07
-193.088
-111.052
-97.1948
-183.793
-70.4952
-150.424
-138.791
-219.23
-236.255
-137.035
-106.007
-81.7782
-101.872
-97.9266
-170.234
-144.204
-124.879
-162.971
-167.766
-125.137
-109.521
-280.223
-199.614
-96.6068
-113.166
-94.9288
-170.974
-101.439
-149.142
-108.941
-156.809
-163.789
-117.527
-115.861
-96.1321
-125.704
-173.805
-64.4756
-63.4726
-127.271
-175.879
-130.78
-74.0393
-128.599
-101.123
-139.924
-174.31
-186.396
-105.397
-84.8259
-123.755
-96.5885
-169.907
-187.477
-231.566
-146.478
-142.38
-84.351
-122.818
-87.8894
-148.155
-150.902
-145.979
-149.936
-139.687
-81.1097
-126.852
-161.115
-99.2135
-132.464
-96.4981
-176.538
-191.493
-145.741
-97.8684
-118.724
-162.504
-123.56
-126.934
-83.6945
-108.637
-100.05
-128.603
-109.011
-86.3362
-173.441
-152.027
-135.91
-172.846
-108.258
-85.2088
-141.646
-147.962
-115.278
-127.392
-155.137
-49.058
-51.067
-151.96
-159.963
-163.108
-123.662
-71.2993
-210.138
-91.1252
-110.924
-147.704
-136.234
-114.271
-128.364
-172.399
-132.65
-142.131
-144.597
-129.718
-173.236
-158.891
-103.143
-178.042
-173.126
-157.025
-143.328
-140.705
-122.28
-115.005
-210.383
-123.417
-113.063
-117.213
-188.195
-223.125
-119.21
-106.394
-124.656
-111.912
-142.259
-94.1621
-70.6491
-164.315
-146.715
-140.807
-103.779
-174.695
-51.8046
-134.544
-134.364
-225.979
-142.673
-138.467
-167.46
-129.502
-103.527
-146.508
-162.774
-80.3455
-176.616
-137.463
-145.443
-149.829
-170.694
-183.066
-155.63
-149.429
-118.982
-126.264
-125.233
-116.29
-75.3418
-150.554
-160.69
-104.971
-94.6612
-103.245
-105.728
-101.722
-145.319
-158.943
-286.969
-168.032
-210.734
-86.1938
-121.315
-124.574
-146.063
-97.2152
-80.5861
-68.6092
-154.623
-205.223
-291.163
-103.518
-124.505
-170.459
-110.633
-100.034
-126.607
-179.863
-114.851
-64.7089
-87.7251
-121.085
-135.562
-95.6263
-144.116
-179.494
-161.259
-154.387
-174.368
-169.708
-138.876
-171.715
-144.208
-96.9435
-126.742
-178.44
-140.653
-146.11
-186.869
-178.841
-130.1
-102.714
-102.927
-144.671
-152.016
-130.292
-99.6854
-155.662
-146.096
-96.4851
-186.401
-186.537
-176.825
-141.295
-191.246
-168.234
-194.189
-111.04
-160.862
-117.835
-175.915
-188.333
-181.306
-133.398
-149.081
-159.738
-81.8016
-113.608
-155.386
-111.259
-57.0097
-229.989
-145.076
-156.013
-99.0488
-114.49
-117.684
-163.974
-162.873
-163.042
-116.593
-120.757
-140.425
-123.087
-168.27
-98.1529
-152.465
-131.744
-112.439
-177.948
-178.222
-205.239
-168.561
-117.487
-112.562
-142.353
-119.22
-153.566
-119.306
-60.2315
-108.57
-132.665
-149.295
-166.562
-162.549
-54.8553
-147.296
-128.784
-152.629
-129.976
-113.2
-171.527
-178.124
-205.22
-184.057
-153.874
-166.572
-155.606
-185.193
-117.971
-130.453
-197.38
-130.934
-163.031
-116.302
-169.556
-71.0373
-152.318
-80.0021
-118.898
-164.522
-173.608
-184.475
-94.0266
-101.732
-106.061
-143.282
-86.3491
-196.589
-211.757
-104.662
-181.821
-128.227
-129.55
-88.3676
-207.275
-130.616
-160.984
-187.377
-137.298
-149.619
-148.759
-174.217
-192.929
-98.0015
-182.882
-180.322
-165.771
-87.3139
-138.501
-144.247
-159.516
-116.335
-163.979
-74.9197
-133.118
-157.563
-102.298
-98.2489
-95.992
-134.001
-89.2494
-165.739
-160.244
-171.369
-136.152
-103.897
-76.4553
-112.175
-155.381
-168.481
-169.058
-124.332
-79.288
-155.769
-117.235
-64.107
-126.398
-136.967
-124.295
-84.2484
-148.965
-65.3719
-194.226
-130.331
-157.091
-176.142
-128.512
-141.309
-134.814
-150.965
-134.089
-116.215
-144.466
-182.652
-178.561
-159.419
-80.5126
-183.232
-134.592
-128.252
-124.426
-131.567
-171.499
-184.117
-124.457
-157.207
-196.979
-131.417
-77.6063
-80.7575
-160.228
-88.3388
-103.69
-133.357
-160.894
-138.419
-161.651
-116.169
-107.569
-99.2767
-147.983
-156.358
-112.997
-118.757
-110.291
-233.234
-170.384
-152.461
-132.651
-118.877
-127.088
-148.237
-157.287
-169.407
-177.957
-140.069
-99.3561
-81.1174
-126.033
-96.1694
-135.643
-101.731
-117.529
-152.802
-135.181
-142.313
-146.95
-151.978
-145.463
-129.2
-164.967
-175.315
-161.444
-125.392
-205.81
-206.855
-173.214
-148.816
-170.65
-156.779
-181.501
-153.11
-185.556
-177.222
-87.7471
-161.92
-207.113
-192.353
-193.858
-160.648
-165.951
-149.904
-169.735
-95.3802
-93.2175
-134.212
-91.4429
-102.767
-65.9628
-64.8793
-101.863
-94.5193
-162.926
-161.749
-58.5363
-147.747
-166.253
-119.877
-156.674
-115.515
-147.831
-156.737
-72.7429
-128.705
-101.324
-144.552
-152.004
-188.049
-113.57
-133.526
-187.972
-131.854
-121.96
-142.732
-122.427
-84.3744
-145.78
-118.502
-166.009
-163.594
-90.0555
-149.948
-153.112
-119.325
-167.998
-175.11
-149.521
-156.679
-108.782
-185.621
-180.376
-113.248
-115.93
-180.628
-108.982
-116.261
-113.151
-174.674
-113.455
-151.34
-139.51
-79.1962
-58.338
-195.488
-195.036
-153.933
-91.3456
-150.636
-146.896
-79.5257
-141.808
-95.9409
-124.768
-64.3649
-84.1373
-159.291
-144.213
-157.002
-191.217
-171.134
-141.397
-181.14
-146.526
-148.971
-266.071
-111.509
-219.843
-231.918
-154.276
-146.898
-127.315
-127.963
-123.467
-112.983
-151.947
-268.526
-104.266
-120.223
-139.315
-140.643
-69.8207
-125.94
-161.054
-98.3456
-129.539
-150.848
-103.953
-80.8696
-90.4261
-88.6631
-97.5898
-120.737
-117.083
-104.606
-124.379
-132.78
-144.163
-165.153
-185.853
-185.531
-63.4286
-114.38
-145.787
-195.462
-153.797
-141.696
-187.125
-180.249
-133.442
-118.709
-109.748
-162.936
-127.876
-159.193
-158.794
-188.904
-158.582
-205.739
-214.453
-146.049
-180.404
-129.517
-134.299
-139.198
-96.7325
-110.389
-219.579
-152.195
-143.067
-66.4818
-199.397
-141.029
-158.207
-131.747
-123.211
-170.007
-119.41
-106.589
-112.068
-106.164
-154.971
-146.009
-89.5598
-88.3358
-176.145
-184.69
-154.313
-180.662
-73.4743
-138.338
-173.409
-140.381
-152.754
-149.921
-147.443
-117.174
-136.035
-128.712
-139.659
-145.088
-145.658
-177.365
-116.518
-151.662
-175.201
-184.126
-132.909
-179.85
-133.972
-150.999
-162.742
-150.722
-128.128
-157.294
-129.095
-121.171
-175.074
-127.085
-97.6043
-112.779
-146.855
-156.577
-141.995
-154.978
-126.489
-136.579
-171.65
-93.7284
-134.768
-122.827
-146.801
-183.14
-72.2796
-126.149
-153.824
-180.432
-116.385
-119.797
-162.281
-102.928
-105.439
-177.847
-111.749
-143.253
-155.183
-191.235
-156.334
-164.081
-135.023
-133.429
-141.775
-181.006
-172.843
-163.522
-146.928
-86.7632
-201.505
-65.3482
-76.5878
-182.521
-142.929
-137.6
-73.2442
-111.783
-110.107
-160.384
-87.9398
-147.669
-99.1743
-167.64
-105.227
-137.258
-91
-151.125
-95.5035
-166.131
-138.906
-135.831
-115.852
-121.542
-77.3669
-181.174
-127.396
-110.992
-165.805
-152.877
-140.013
-139.71
-170.144
-90.8805
-97.2639
-142.024
-186.866
-173.533
-149.462
-59.1768
-95.1347
-127.851
-172.011
-178.444
-195.598
-139.434
-145.922
-171.982
-173.187
-108.245
-115.05
-104.244
-108.452
-161.144
-161.095
-128.681
-112.236
-153.261
-164.931
-143.171
-95.7726
-170.91
-167.811
-210.888
-124.345
-128.192
-142.65
-133.052
-126.542
-120.966
-152.332
-182.099
-203.547
-170.275
-111.982
-135.447
-139.093
-112.005
-127.183
-116.459
-124.206
-117.274
-78.9118
-91.5559
-148.77
-121.593
-186.068
-107.505
-117.371
-118.791
-158.869
-198.859
-157.038
-146.593
-120.046
-173.002
-136.24
-128.689
-179.109
-121.108
-87.5098
-146.728
-175.147
-121.672
-143.256
-144.813
-107.756
-139.774
-151.653
-110.892
-107.862
-175.673
-132.018
-146.709
-156.251
-180.987
-120.141
-155.34
-140.466
-163.193
-147.62
-115.499
-119.38
-132.331
-125.221
-155.243
-124.883
-171.441
-58.607
-262.992
-121.336
-121.199
-124.084
-167.206
-81.4777
-192.415
-162.196
-190.548
-165.532
-246.948
-196.187
-155.307
-150.547
-141.672
-103.484
-90.1365
-150.195
-138.021
-101.411
-176.051
-159.116
-91.3695
-94.7838
-102.332
-100.969
-162.062
-141.467
-145.467
-158.848
-85.6515
-166.745
-168.437
-123.523
-169.414
-149.224
-80.6641
-82.7693
-220.007
-198.775
-121.068
-138.704
-167.638
-147.352
-136.782
-119.338
-148.996
-108.283
-125.514
-132.953
-171.365
-57.7925
-150.46
-71.8991
-78.8199
-143.275
-162.159
-175.241
-122.215
-130.01
-180.633
-145.295
-155.403
-101.541
-147.457
-130.082
-77.3934
-117.296
-156.926
-104.986
-210.892
-183.167
-131.796
-136.835
-151.532
-255.48
-164.394
-134.282
-216.363
-123.95
-208.267
-168.526
-134.37
-136.537
-89.0793
-107.774
-79.5876
-171.878
-148.137
-149.238
-170.296
-144.616
-167.437
-159.754
-183.16
-82.3454
-96.8129
-144.393
-109.203
-175.5
-120.684
-161.304
-168.528
-130.004
-120.728
-74.0579
-166.564
-105.114
-162.131
-113.772
-109.932
-105.31
-130.773
-117.553
-166.245
-147.485
-150.43
-99.339
-99.2097
-113.644
-161.305
-97.9048
-128.984
-103.646
-90.7507
-94.7185
-138.285
-138.771
-160.991
-155.595
-191.195
-120.237
-167.804
-158.134
-169.405
-75.4091
-153.819
-156.97
-174.367
-151.138
-163.348
-183.525
-91.0477
-164.714
-105.242
-83.0888
-92.7493
-82.9565
-153.159
-145.395
-133.634
-155.631
-162.119
-146.736
-115.218
-187.668
-159.085
-138.232
-134.882
-246.484
-77.576
-186.818
-102.383
-183.034
-75.7688
-166.37
-162.888
-147.387
-141.567
-114.836
-95.4138
-177.381
-116.102
-120.107
-160.137
-179.779
-175.306
-154.264
-122.64
-151.486
-103.193
-113.567
-101.086
-181.827
-183.052
-112.678
-137.872
-136.16
-222.271
-126.561
-159.474
-113.997
-108.465
-159.06
-160.692
-153.398
-127.548
-153.902
-163.496
-153.532
-165.348
-171.077
-111.682
-178.458
-79.4983
-104.573
-100.786
-60.7627
-159.966
-123.534
-176.672
-165.854
-134.203
-80.9117
-100.706
-126.937
-134.025
-80.7808
-132.672
-167.535
-112.628
-154.742
-159.672
-169.501
-224.141
-164.689
-96.4253
-142.32
-161.336
-161.786
-102.91
-125.84
-142.525
-92.0276
-117.215
-190.66
-185.645
-101.58
-179.941
-166.118
-63.3578
-66.8385
-128.456
-135.883
-183.961
-158.162
-179.869
-136.874
-140.163
-145.143
-123.571
-126.396
-138.346
-124.255
-165.027
-139.13
-116.384
-119.475
-238.023
-178.609
-96.408
-68.6304
-124.655
-102.588
-147.205
-163.945
-92.4791
-125.707
-134.399
-107.662
-119.699
-157.797
-154.438
-146.788
-137.059
-159.384
-163.324
-82.5714
-158.694
-190.693
-197.308
-223.927
-101.959
-95.0659
-166.651
-166.252
-163.4
-97.1797
-137.032
-190.975
-132.058
-111.908
-124.158
-148.024
-84.8318
-193.178
-110.844
-128.336
-126.033
-180.871
-144.141
-98.7988
-78.2086
-175.168
-108.111
-154.932
-144.197
-116.845
-115.65
-106.547
-118.313
-126.141
-153.238
-131.124
-184.044
-95.4267
-123.355
-146.879
-111.735
-167.957
-152.15
-77.4217
-94.572
-77.0036
-74.1441
-127.429
-134.769
-201.006
-162.126
-135.521
-118.619
-88.4751
-105.309
-83.9012
-153.221
-137.973
-145.644
-167.43
-179.325
-179.337
-122.103
-113.325
-71.1725
-79.3692
-115.017
-105.971
-147.488
-116.302
-112.04
-106.31
-105.528
-139.469
-155.233
-173.117
-112.565
-161.317
-209.05
-183.67
-177.232
-175.55
-182.11
-126.244
-195.341
-90.1667
-105.284
-167.998
-93.7395
-141.868
-108.716
-152.614
-64.5784
-57.6025
-75.0571
-172.609
-150.78
-150.295
-183.081
-148.851
-127.406
-167.871
-101.997
-100.254
-84.2271
-200.865
-159.189
-104.998
-98.4636
-115.345
-198.165
-94.0691
-126.951
-161.37
-134.304
-113.843
-142.485
-153.04
-145.44
-170.57
-90.4355
-158.373
-260.871
-121.028
-166.482
-135.052
-178.774
-132.887
-131.787
-114.948
-108.558
-177.371
-173.458
-164.792
-168.556
-104.715
-170.998
-114.171
-110.931
-122.763
-152.827
-154.918
-151.361
-159.981
-125.48
-186.844
-116.432
-118.364
-139.844
-162.464
-137.102
-142.959
-134.375
-181.169
-110.435
-145.071
-112.694
-90.9432
-95.0322
-150.786
-131.388
-151.457
-152.272
-198.932
-196.256
-184.13
-169.795
-193.299
-178.719
-215.756
-172.676
-187.354
-152.601
-132.859
-102.61
-106.735
-169.532
-137.826
-117.258
-116.16
-141.583
-176.915
-173.053
-101.847
-82.6367
-103.611
-174.624
-138.238
-105.467
-128.106
-143.365
-90.9378
-111.536
-145.415
-178.193
-159.026
-110.587
-101.816
-89.5233
-115.167
-96.8558
-172.813
-123.961
-143.961
-63.7584
-167.004
-104.706
-104.957
-129.989
-124.824
-86.1475
-141.523
-180.613
-163.853
-137.037
-138.599
-152.592
-104.454
-136.572
-129.67
-131.467
-174.021
-233.766
-117.418
-97.3875
-179.914
-113.699
-147.995
-154.567
-166.903
-110.263
-148.312
-114.25
-187.366
-116.067
-92.7383
-102.132
-116.053
-171.759
-180.348
-172.408
-135.144
-112.753
-120.024
-131.943
-161.125
-179.854
-117.845
-208.176
-154.954
-166.43
-173.208
-124.066
-148.895
-133.364
-197.214
-92.924
-163.468
-161.402
-165.307
-115.276
-231.96
-142.54
-126.298
-101.643
-203.369
-190.685
-214.859
-127.625
-128.934
-132.087
-166.696
-101.89
-130.781
-109.254
-108.57
-142.735
-163.035
-146.47
-192.366
-80.4915
-138.585
-191.93
-127.799
-92.0273
-133.059
-114.59
-107.747
-116.661
-58.9748
-123.164
-191.389
-181.308
-141.601
-161.239
-162.784
-167.434
-149.708
-170.704
-154.354
-187.492
-94.0461
-142.174
-161.222
-127.934
-111.771
-85.0387
-111.717
-137.116
-134.903
-152.696
-158.924
-146.994
-165.529
-145.488
-147.444
-95.9431
-118.287
-101.702
-99.6642
-132.121
-131.027
-171.204
-115.684
-107.398
-173.383
-151.102
-105.118
-76.9964
-109.606
-94.9347
-106.84
-170.934
-138.418
-181
-133.389
-172.136
-86.1522
-93.0017
-195.258
-217.303
-205.974
-146.844
-160.014
-182.17
-98.0999
-99.4484
-157.42
-83.6497
-156.336
-133.026
-151.952
-132.804
-111.023
-163.393
-158.053
-85.5574
-123.837
-141.888
-131.662
-103.005
-166.869
-120.293
-165.151
-254.049
-94.1348
-153.579
-198.054
-75.6951
-101.24
-160.197
-145.732
-115.421
-169.007
-103.682
-138.787
-128.255
-90.9848
-88.0404
-120.683
-74.4326
-155.084
-159.591
-171.436
-173.913
-96.9933
-135.579
-66.9765
-163.158
-179.848
-150.661
-140.239
-174.973
-163.697
-115.778
-115.96
-149.618
-131.538
-54.5815
-96.8156
-178.978
-168.801
-139.252
-141.449
-160.589
-111.302
-126.806
-100.955
-151.886
-177.789
-152.565
-155.682
-120.927
-124.311
-174.722
-202.088