/*--------------------------------*- C++ -*----------------------------------*\
| =========                 |                                                 |
| \\      /  F ield         | OpenFOAM: The Open Source CFD Toolbox           |
|  \\    /   O peration     | Version:  2212                                  |
|   \\  /    A nd           | Website:  www.openfoam.com                      |
|    \\/     M anipulation  |                                                 |
\*---------------------------------------------------------------------------*/
FoamFile
{
    version     2.0;
    format      ascii;
    arch        "LSB;label=32;scalar=64";
    class       surfaceScalarField;
    location    "10";
    object      phi;
}
// * * * * * * * * * * * * * * * * * * * * * * * * * * * * * * * * * * * * * //

dimensions      [0 3 -1 0 0 0 0];

oriented        oriented;

internalField   nonuniform List<scalar> 
188832
(
-0.00772767
0.00665072
0.000170837
0.000822957
-0.00327771
-0.00434462
-0.000253641
0.00371416
-0.00431647
-8.45309e-05
0.000679513
-0.00252113
0.00390121
-0.00132643
-9.91695e-05
0.00638112
-0.00261621
-0.00328657
-0.000442509
-0.00279087
0.000340582
0.00271525
-0.000266699
-0.00757093
0.00445755
0.00114273
0.00196748
-0.00609055
0.00304952
0.000481377
0.00679199
-0.000239349
-0.000356068
-0.00840538
0.000744988
0.000116515
-0.000274503
-0.00202321
0.00205961
0.000224617
-0.00273883
0.0119405
-0.00894686
-0.000662435
0.0276584
-0.015367
0.00188122
0.00113526
0.00125424
-0.00241104
7.96122e-06
-0.00102895
0.00223143
-7.98979e-05
-0.00179841
-0.000925073
0.00324089
-0.00049479
0.00294011
0.00301407
-0.00554976
-0.000451572
-0.00306594
0.00172698
-0.000429217
0.00795586
-0.00327829
-0.00179192
0.00620453
-0.0019313
0.00195566
-0.00452831
0.00362972
0.00104356
-0.0001673
0.000740973
-0.00283932
0.00316433
-0.00105678
0.00566069
-0.00879321
0.0029016
0.00020261
-0.00221089
0.00683881
0.00090873
0.00670245
-0.00368875
-0.00325137
0.000269148
0.00274254
0.00417937
-0.000179345
0.00235936
0.000796839
-0.00295684
-0.000210267
-0.000331189
-0.00458616
0.00367849
0.00135968
0.00447644
0.00127301
-0.0060359
0.000274327
0.00820482
-0.00065991
0.00276275
0.0014904
-0.00402421
-0.000421477
0.00236855
0.00131454
-0.00325634
-0.000398515
-0.00459094
-0.00283084
0.00716754
0.000325639
-0.0061656
-0.00193864
0.00822709
-0.000145372
-0.00321604
0.00279332
0.00026542
0.000175902
-0.00648539
-0.00039962
0.00540547
0.00148969
0.00296278
-0.0050083
0.00211202
-5.94743e-05
0.0082425
-0.00686712
-0.00306788
0.00169988
0.000222854
0.00235362
-0.00415501
0.00136747
-0.00365157
0.00346253
-0.00104557
0.00121
-0.000593461
0.00230896
-0.00142854
-0.000313861
0.00223905
-0.00300677
0.00100155
-0.000232685
0.00274332
-0.000508331
-1.68655e-05
0.00407074
0.00312062
-0.000470135
-0.00225225
0.00328471
-0.000753891
-0.000295598
0.00289018
-0.00167613
-0.00142028
0.00024869
0.00611464
-0.00568682
0.0011567
-0.0018456
0.000300435
-0.00342357
0.00321063
-0.000104018
-0.00494306
0.00234817
0.0032247
-0.000625942
0.0072796
-0.00488466
-0.00344919
0.00103885
0.000559705
0.00281805
-0.00294465
-0.000441425
0.00267442
0.00337262
-0.00531301
-0.000735095
0.00351457
-0.000653977
-0.00248382
-0.000361086
-0.00696212
0.00725817
-0.00103638
0.000790901
0.000609276
-0.00353829
0.00401204
-0.000975509
-0.00380783
0.00521984
-0.00256462
0.00117881
-0.00305535
0.00265753
0.000196229
-0.00849508
-0.0079912
0.0151932
0.00126978
-0.0111611
9.19443e-05
0.00351957
0.00313191
0.00062796
0.00614965
-0.00336777
-0.00206185
-0.00746451
-0.000368779
0.00770717
0.000234274
-0.00177669
-0.000581689
0.00277282
-0.000410991
0.000787887
-0.00261529
4.41479e-05
-0.00347063
0.00308796
-7.01508e-05
0.000450315
-0.00816745
0.000829437
-8.46021e-05
-0.00499518
-0.00260104
-0.000713435
0.00263991
-0.00626827
0.00415854
-0.000438443
-0.00416353
0.00650595
0.000324875
-0.00626568
0.00752231
-0.00282158
0.00156687
-0.000462727
-0.00544887
-0.00014902
-0.00142956
0.00568432
-0.000616383
1.73876e-05
-0.00188209
-0.000417588
-0.0268481
-0.00386259
0.00222117
-0.00208394
0.00257395
-0.000498225
-0.00344933
0.00079386
0.00298926
-0.000300677
0.00279406
2.35873e-05
-0.0020316
-0.000801314
0.00388952
-0.00573851
0.000890081
0.000819254
0.00333789
-0.00280694
-0.000602071
-0.00675004
0.00119741
0.00598405
-0.00106563
0.000314328
0.00137303
-0.00469447
-0.00045899
0.00189678
0.000667806
-0.0121879
0.0026407
0.00700529
0.00254954
-0.00480397
0.00633531
-0.00208996
0.000506515
-0.00302756
0.00186122
0.00185624
-0.000690523
0.0035475
-0.0063492
0.0019187
0.000923109
0.00442813
-0.00314919
-0.000857334
-0.000289387
-0.00148059
0.00471952
-0.00317883
-5.62969e-05
-0.000813349
0.00059143
0.000875834
0.0043288
-0.00122956
0.000565819
0.00351104
-0.000354258
0.00289069
-0.00459624
0.00101859
0.000695689
-0.00312217
-0.000268069
0.000199422
-0.000319293
-0.00434507
0.00534541
-0.000720074
-0.0255745
0.000337599
0.00159708
0.00413003
-0.016707
0.0168429
-0.00476288
0.00704221
-0.00116598
-0.00605682
9.84378e-05
0.00367202
-0.000597923
-0.00272972
-0.000320704
0.00101876
0.00218679
-0.000463602
-0.00696515
-0.00296631
0.00916961
0.000859281
0.02529
-0.0180137
-0.0105111
0.00214769
0.00155827
0.00532446
-0.00440942
-0.00255315
-0.00523309
-0.000217934
-0.00318883
0.00257589
0.000331165
0.000283285
0.000189378
-0.00311249
-0.000269672
0.00350219
-0.00405459
0.000513586
4.64484e-05
0.00424474
-0.000828302
-0.00296653
-0.000434081
0.00367709
0.000516345
7.09911e-05
-0.00658729
0.00568194
-0.000584282
-0.00494231
0.00177836
0.00448421
-0.00131645
-0.00968852
0.00604374
0.000826831
0.00634301
-0.00511217
0.000729716
0.000456192
0.0043329
-0.00422034
-0.00050079
-0.000409636
-0.00454362
0.00648467
-0.00154347
0.00493247
-0.00424311
-0.00109412
-0.000615642
0.00435676
0.000149175
0.00468798
-0.00434571
0.00081369
0.00843783
-0.00561473
-0.00162031
-0.00124523
0.00112731
0.00253836
-0.00448755
0.000934299
0.00255503
0.00136583
-0.000410119
-0.0023382
-0.00352441
-0.000279961
0.00324736
-0.00125348
-0.000139551
-0.00157608
0.00597325
-0.00323175
-0.00117223
0.00440259
-0.0061933
0.000213812
-0.00675747
0.00543037
2.93496e-05
0.00133494
-0.00225253
0.00146424
0.012705
0.0188016
-0.00553373
-0.0012791
0.00454568
-0.00481179
0.00164202
0.00296867
-0.00511401
0.000912831
-0.000845
0.003462
-0.00250152
-0.000115028
0.00407907
-0.00440981
0.000733792
0.00395172
0.000260845
-0.00140831
0.004582
-0.00128702
-0.00178844
-0.00131981
0.004499
-0.00716751
0.00139574
0.00126138
-0.00491448
-0.000377652
0.0040416
0.000954428
0.00346336
-0.00298422
0.000713615
0.00259932
-0.00566005
0.00338233
-0.00036441
-0.00297871
-0.00109389
0.0051983
-0.00102213
0.00277462
-0.00264093
-0.000805057
0.000668591
-0.0108218
-0.0020433
0.000786949
-0.00337138
-0.00571989
-0.00179097
-0.00340767
-0.00190091
-0.043256
0.00134693
-0.00227539
0.0035429
-0.000529418
0.00802577
-0.00269953
-0.00457549
-0.000753388
-0.00580455
-0.000802018
0.000160194
0.00568118
-0.0052884
-0.00196586
0.00150765
-0.00771193
0.00420177
0.00362308
-0.000100364
-0.0101319
-0.0240742
0.0337558
0.000382478
-0.0064833
0.00224643
-0.000299895
0.00122331
0.00113524
0.000416623
0.000224986
0.00274289
-0.00268154
-0.000275576
0.00435328
-0.00573197
-0.000114221
0.00145252
0.0109264
-0.00293746
-0.00265465
0.00343681
-0.00202829
-0.000403046
0.0146248
-0.01993
0.00317406
-0.00261063
0.000172601
0.000327854
0.00384596
0.00543629
-0.00105526
-0.00402199
0.00634308
0.000317753
-0.00330624
-0.000796893
0.00287576
0.00126486
-0.0190572
0.000830389
0.0136698
0.004674
0.00521279
-0.00383915
-0.000799304
-0.00352954
0.00253197
0.000737672
0.000244112
0.00438974
-5.59313e-06
-0.00450666
0.000283637
-0.0224933
0.000827176
0.00264552
-0.00466338
-9.2905e-05
0.00445373
0.000275941
-0.00212528
-0.0025918
5.16741e-05
0.00142984
0.00180346
0.000450805
-0.00618057
0.000896987
0.0019227
0.00377811
0.00405027
0.000576534
-0.00372722
0.00167966
0.00315704
-0.0030216
-0.000295349
-0.000147844
-5.61302e-05
-0.00243379
-0.00050903
0.00572479
-0.00444121
-0.00139251
9.17985e-05
-0.00376033
0.0023313
0.00115369
0.000300211
-0.000618744
-0.00308088
-3.9414e-05
0.0029045
-0.00345512
0.000645468
-0.000142968
0.0023299
0.000282669
0.00289137
-0.000251593
-0.00221689
-0.000429065
0.00247459
0.000149629
0.000265126
0.0025164
-0.00630625
0.0014949
0.00255426
-0.00255697
0.000373459
-0.00232865
0.00259405
-0.000651075
-0.000333371
0.00368201
-0.000445672
-0.0252879
-0.00109026
-0.00339145
0.00519719
-0.00262832
0.000753384
-0.00914523
0.00799705
0.00090594
0.000438722
-0.00102584
-2.22261e-05
0.000221636
0.00780481
-0.00502728
-8.50398e-05
-0.00167479
0.00303795
7.32012e-05
0.00403044
0.00437431
-0.000373854
0.000956214
0.00462708
-0.00457387
-0.00094707
0.000337856
0.00345448
-8.10258e-05
0.00369317
0.000191128
6.90553e-05
-0.00378469
0.00299424
0.000732956
0.00224854
-9.21281e-05
-0.00231882
0.000172315
0.000931347
0.00157204
-0.000162834
0.00397145
-0.00129269
-0.0021419
-0.000540334
0.000483485
-0.00639656
0.000588266
0.000425505
-0.00505563
9.32087e-05
-0.00577989
0.0015906
0.00500585
-0.000864043
-0.00714893
0.000917955
-0.00180207
0.00346218
-0.00328328
-0.000421808
0.000247984
0.0038596
-6.49983e-05
-0.000296645
0.00165376
-0.00320941
0.00184982
-0.000287918
0.00159202
0.00268874
0.000499992
-0.0048627
0.00082864
0.00377031
0.000205765
0.00813867
-0.00143648
-0.00480909
-0.00215692
-0.000729044
-0.00470347
-0.00673554
0.00165175
0.00151836
-0.00025035
0.00444028
0.00208354
-0.00520606
-0.00133598
-0.0024092
0.00571458
0.00114328
-0.00493839
0.00256187
-0.000543544
-0.00175541
0.00367186
-0.000259933
-0.000367086
0.00339619
-6.21168e-05
-0.00185051
-0.000548516
0.00204718
0.000380092
-0.00170625
-0.00294467
-0.00146799
0.00260165
-5.83255e-05
-1.84747e-05
0.0182284
-0.0310949
0.00224867
0.00351082
-0.0030578
0.00228962
0.00333669
-0.00617112
0.00328001
-0.000505115
-1.29406e-05
0.00450986
-0.00527427
0.000813798
0.0012715
-0.00474041
0.00354127
-5.56331e-05
0.00665136
-0.000681678
0.00109488
-0.00112918
0.00507189
-0.00395047
9.52767e-05
-0.00310949
0.00795511
0.00034553
0.00481537
-0.020123
0.0197266
-0.00823343
0.00670526
-0.00689087
-0.00118975
0.00126604
0.00138425
-0.00331517
0.00233162
-0.000374971
-0.00181515
-0.0086408
0.0135636
-0.0031798
0.00442409
-0.00541984
0.00115613
-0.000234026
0.00362895
-0.000667626
0.000125644
0.00203975
0.00172071
-0.000135896
-0.00495258
-0.000311505
0.00361501
0.00179054
0.00263983
-0.000669564
0.000285289
0.00290127
0.000523311
-0.00186582
0.0031065
-0.00127881
4.15748e-05
-0.00117215
-0.0044671
0.00507262
0.000545556
0.00492501
-0.000184867
0.00235527
-0.00250045
-0.000114395
0.000246995
0.00315468
0.000210895
-0.00101427
0.00167907
0.000289619
0.00139476
-0.00592776
0.00104778
-0.00350346
0.00417855
-0.00213593
0.00137571
-0.00474159
0.000383276
-0.00293574
-0.00757383
0.0111126
-0.000518981
0.00335418
-0.000379984
-0.00488591
0.00122553
-0.000870149
-0.00439644
0.0026379
0.000699721
-0.000139512
-0.002735
0.00383511
-0.000999696
-0.00446293
0.00350971
0.000960927
0.00562049
5.91722e-06
-0.000325364
0.00376712
-0.000875425
-0.00256863
-0.000598756
-0.00314719
0.000201438
0.00488882
-0.00141783
-0.00428942
0.000755727
-0.00308134
0.00179988
0.000940108
0.000314585
0.00300372
-0.0025373
-0.000587569
0.000106324
0.00886821
-0.00667176
-0.00177334
-0.000432947
0.00520253
-0.00377687
-9.06027e-05
0.00343211
0.0032422
0.00230731
0.002783
-0.00325405
0.000542695
-0.00419587
-0.0037173
0.00756035
0.000142108
-0.00179411
-0.00147973
-0.000134633
0.00253194
-0.000587236
-0.000809467
-0.00374699
0.00462074
-0.000226758
0.00275919
-0.00254448
0.000154466
-0.00399603
-0.00365982
0.000506772
0.00513843
-0.0100492
0.00292514
0.00198857
-0.00255121
0.00657655
-0.00268936
0.00151383
-0.00308161
-0.000722665
-0.00209559
-0.00183407
-0.000115472
-0.00504176
0.00272492
-0.00181582
-0.0252592
0.000176911
0.00289893
-0.00221604
-0.00149727
-0.00512592
0.00646897
-0.00178063
0.000495899
-0.00311751
-0.00256503
0.000766328
0.000365124
0.00330817
1.37296e-05
-0.00221907
-0.000406563
-0.00324048
0.000790205
0.00253145
-9.86755e-05
0.00339534
-0.000256161
-0.00259711
-0.00235845
0.00545135
-0.000619063
-0.0059125
0.0030994
5.22635e-05
0.00437868
0.000431888
-0.00564701
0.000803057
0.00346504
-0.0103235
0.00287502
-0.00765113
1.23656e-05
0.00451488
0.00858405
-0.00910073
-0.00407208
-0.00452824
0.00128573
4.61651e-05
-0.00637363
0.0018569
-0.000652334
-0.00253695
-0.000490763
0.00253549
0.000476696
0.00522634
-0.00123165
-0.00498912
0.00100406
0.00207874
0.00388516
0.000704298
0.00197663
-0.00521731
0.00261175
0.00061375
-0.00222459
0.00395249
-0.000955921
-0.000779083
-0.00256963
-9.08672e-05
0.000940995
0.000293409
0.000543753
-0.00333001
0.00172418
-0.00817333
0.00477136
0.00323907
0.000154802
-0.00307354
-0.00618958
0.0010597
-0.00305368
-0.00327998
0.00681277
-0.000341132
-0.00524141
0.00321222
0.000704271
0.00129546
-9.45102e-05
-0.00553728
0.000742697
-0.000510324
0.00354463
-6.73762e-05
0.00629914
-0.00261706
-0.000332183
-0.000681298
-0.00302547
0.00414518
-0.00042029
0.00134148
-0.00444769
-0.000449207
0.000894095
-0.00354506
0.000813392
-0.00254085
0.000987167
-0.000287658
-0.00178889
-0.00247844
0.00330389
0.000810979
-7.82528e-05
0.00137516
-7.37039e-05
-0.00309109
0.00278978
0.000217128
0.0233863
-0.00456175
-0.0236118
0.00434536
-0.00377495
0.00540703
-0.00247312
0.000898546
-0.0086734
0.00346204
0.00139746
0.0026478
-0.0031232
-0.000598175
0.00102923
0.00248064
0.000283198
-9.7813e-05
-0.00337081
0.0059224
-0.00240868
-0.000147897
0.00342278
-0.00134844
-0.00314589
0.000773868
0.00205595
0.000313204
-0.00581443
0.00314862
-0.000412462
-0.00257044
-0.00320222
0.000379791
0.00753663
-0.00292272
-0.00342039
-0.00121359
0.0088586
-0.00180015
-0.00192248
0.0015533
0.0016927
-0.00308735
-0.00014121
0.00293576
-0.000325167
0.00150057
-0.00481552
0.00143332
0.00594092
-0.00350819
-0.00245242
1.68673e-05
0.00159898
-0.00182541
0.000144539
0.00289322
-0.00125697
-0.000215176
0.001824
-0.00523016
0.0042118
-0.000827824
-0.000163291
0.0025499
-0.00168108
-0.000643514
-0.00202626
0.00339752
-0.00145964
8.05289e-05
0.000956842
0.00212636
-0.00295226
-0.000118579
-0.00366928
-0.00238456
0.00117063
0.00499693
-0.000802804
-0.00328516
0.00136859
0.00233956
-0.000397275
-0.0022106
-0.000630302
-0.000443656
-0.00766547
0.00229814
0.00108256
0.00516864
-0.0012963
-0.00496226
0.0010128
-0.00336139
0.00312577
-0.000611243
0.000846148
0.00534649
-0.00173298
-0.00298229
0.000226359
0.0028028
-7.83509e-05
-0.00176138
-0.00514752
-1.73793e-05
-0.000299414
-0.00536041
0.0036392
0.0019801
0.00563134
0.000761695
-0.00828684
0.00186423
0.00087354
-0.000952366
0.0245063
0.00144568
0.00158356
-0.00714418
0.00368389
0.00172238
0.00180851
0.00170544
0.00123673
0.000634574
-0.00715178
0.000239563
0.00201932
-0.00309477
0.0203122
-0.0156484
-0.00563917
0.00579772
-8.47718e-05
0.000206806
0.00010421
-0.00310454
-0.000262121
-0.000168671
0.000404392
0.00343576
-0.000553585
0.00313999
-0.00115493
-0.000447668
-0.000249726
-0.000373705
-0.00173712
0.00310119
0.000441168
-0.00375178
0.00125301
0.000781309
-0.00569465
0.00778396
-0.00193048
-0.000236808
-0.000395327
0.00455755
-0.00382514
-0.000446109
0.00310104
7.64586e-06
0.00495493
0.00110363
-0.000835442
0.000548328
0.00390169
-0.0033423
-0.000788999
-0.00113907
0.0028839
-0.00200281
-0.000205578
-0.000681625
0.00526787
-0.00330943
-0.00202029
5.96916e-05
0.00020907
0.00768286
-0.0001658
0.00269209
0.00404996
0.000929034
-0.000903561
-0.000565542
-0.00363632
-0.00410052
-0.00120965
-0.00570175
0.00050559
-0.0257138
0.0314449
-0.00502027
-0.0126138
-0.0107933
0.0271549
-0.00288378
0.0003897
-0.00135238
0.00578742
-0.00190384
-0.00711144
0.00306505
0.000443026
-0.00235929
-0.000306383
0.00297372
-3.75611e-05
-0.00163778
-0.000222229
0.00232404
0.000987155
0.00100142
-0.0079399
0.00833756
-0.00164129
0.002204
0.000113981
0.000328211
-0.00277854
-0.000125686
0.00538157
0.000763219
0.00161462
-0.00543305
0.00620115
-0.0016193
0.00079667
0.00222982
0.00727277
0.00129365
0.00470668
0.00143878
0.000484654
0.00017605
-0.00274252
2.62488e-05
0.00222212
-0.00667482
0.00373528
0.000694425
0.00429259
-0.00207038
0.000200394
0.00473409
0.00127381
-0.00116294
-0.00299052
-0.000372444
-0.00013924
0.00250901
-0.00046711
0.00657288
-0.00750634
0.00134186
0.00316267
-0.00376675
-3.91258e-05
-0.0248613
0.0263552
-0.00612598
-0.00156155
-0.00159018
0.00331376
-0.00015017
-0.00598157
0.00329373
0.000238395
-0.00307417
0.000436334
-0.00656825
0.000280418
0.00424289
0.00204742
-0.00118683
0.0042811
-0.00320744
6.87205e-05
-0.00311446
0.00175947
0.00134637
1.51661e-06
0.00330953
-0.0016926
-0.000614638
0.00127688
6.36185e-06
-0.00826616
0.00476054
0.000659292
0.00138489
-0.00122909
-0.000293085
0.00254111
-0.00487699
0.000717141
-0.00725328
0.00570761
0.00223403
-0.000645097
0.000808069
0.000563481
-0.00555394
0.00756319
-0.00154857
-0.000401539
0.0027938
-0.00272456
-0.000310415
-0.00319346
0.00410286
-0.00177287
0.000869362
0.000837637
-0.00345205
-0.000675788
0.00264572
0.00382222
-0.000776532
0.021605
-0.0276452
0.00530509
0.00189465
-0.0024763
-0.000262636
-0.00655298
-0.00127277
-0.000359203
5.13015e-05
-0.00348825
0.00241998
0.00101644
2.4889e-05
0.0032528
-0.000109893
0.0024511
0.0012397
-0.00260806
-0.00106533
-0.00406034
-0.000109387
0.00440156
-0.00230266
-0.000395946
0.00394057
-0.00424293
-0.000264367
0.00351752
-0.000653863
-0.000981073
0.00162687
0.00114881
0.000109189
0.00377941
-0.00520785
0.000258744
0.0011257
0.000635948
-0.0015138
-0.000307848
0.00190273
-0.000537933
0.0045141
-0.00323798
-0.000387054
0.00211282
0.00396254
-0.00167863
-0.00164969
-0.0014412
0.00286892
0.0002116
0.00155338
0.000462162
0.00999651
0.00152805
-2.45073e-05
0.00128398
-0.00367373
-0.000598797
-0.00537569
0.00269855
0.00236889
-0.000312615
-0.00276404
0.00403701
-0.000960798
-0.00346614
0.00360921
-0.000441473
-0.000455935
0.00270028
-0.000583424
-0.00249205
0.000907352
-7.57525e-05
-0.0019123
-0.00156537
-0.00106223
0.00219444
5.62355e-05
-0.00220045
-5.21401e-05
0.00323502
0.00167737
0.000278211
0.00471719
-0.00735526
-0.000406979
-0.00543629
-0.00141483
-0.00284666
-0.00390822
0.0016357
-0.0034839
0.00617754
-0.00171215
0.000186286
0.00749687
-0.00164587
0.000324868
-0.000853559
0.00327289
-0.00212345
-0.000269611
0.0035379
0.00428139
0.00163896
-0.00240718
0.00268119
0.000457101
-0.000681863
0.00236358
-0.00149681
-9.52129e-05
-0.00464768
0.00251595
0.00108778
0.000994972
-0.00364221
0.00141857
0.00528857
-0.00232677
-0.000879505
0.00523901
0.00169907
-0.00679165
-0.000176698
0.00234665
0.000475915
0.00163577
-0.000709791
-0.000379132
0.000412397
0.0309912
-0.00384068
-0.0047277
-0.00484038
-0.00284677
-0.00113315
-0.0111007
-0.00465155
-0.00301033
0.00276322
0.000423493
-0.000168919
0.00222032
-0.00268777
-0.000107362
0.000189014
-0.00582285
0.000262898
0.00958567
-0.00136677
-0.00329639
0.00457792
-0.00026233
0.00139179
0.00194267
0.000828421
0.00559482
-0.00155326
-0.00472135
0.00049069
0.00390663
-0.00637167
0.00191569
0.000389358
0.00269838
-0.00392151
0.000887481
-0.00354471
-0.000815077
-0.00182262
0.0038733
-0.00186388
-0.000168866
0.00270136
0.0041219
0.000383049
-0.00164529
0.00197229
0.000458934
0.00296351
-0.00360128
4.94936e-05
0.00736232
-0.00676458
-0.000451978
0.00504212
0.00164948
0.000853454
0.00658534
-0.000932477
-0.000635846
-0.00349865
-0.000947306
1.90584e-05
0.00287789
-0.00538638
0.00441141
-0.00191024
-0.0322754
0.0111739
-0.0032977
-0.000830507
-0.00404567
0.00663636
-0.00172045
0.00490923
0.000215667
0.00316973
-0.000243103
0.00147406
-0.00867511
0.00434394
0.00264537
0.00166581
-0.00752896
0.00122363
-0.00329658
0.00361145
0.000132303
-0.000442248
-0.000904244
0.00190589
0.00215706
-0.000118051
-0.00305327
0.00297282
-0.000506246
-0.000366339
0.000490194
-0.000965095
-0.00297735
6.44008e-05
0.00392941
0.000372526
-0.00449569
0.000251946
-0.00269287
-0.00574302
0.00667557
0.00179759
-0.00478519
-0.000106933
-0.0058841
0.00222069
-0.00117755
-0.00290679
0.000524097
0.00188988
-0.000250957
-0.00106068
-0.000580015
0.000743222
-0.000888375
0.00134094
-0.00549007
0.00139713
0.00544255
-0.000597299
-0.00225614
0.00389256
-0.00122923
-0.00611837
0.00623573
0.000703556
0.00106301
0.00181154
0.000619047
-0.000236854
-0.00128438
5.26152e-05
0.0026214
-0.00394112
0.000132243
-0.000174633
-0.00323517
0.00360071
-0.000202271
-0.00118902
0.00335383
-0.000411532
-0.0014237
0.00338215
0.0010235
0.00120841
-0.0067246
0.000963913
-0.0188976
0.0218912
0.000646379
-0.00885857
-0.0124545
0.00445506
-0.00768411
0.00151839
-0.000757933
0.0133882
-0.0123909
-0.00493161
-0.00404466
-0.00193668
0.00601821
-8.08746e-05
0.00579709
-0.00110602
0.000803445
-0.00417423
0.00688257
0.000573997
-0.00610655
0.00261919
-0.000662213
-0.0036414
7.79005e-05
0.000557124
0.00116987
0.013072
-0.00874608
0.00869187
-0.00383652
-8.63757e-06
0.00256239
-0.00509054
0.000872343
0.00289858
-0.00109973
-0.00238813
0.000562748
-0.00043839
0.00442657
-0.00377201
-0.000140715
3.65821e-05
0.00384564
0.000803293
-0.00260694
0.0025456
-0.000247283
0.000307157
-0.00133199
-0.000868035
0.000313475
0.00441154
-0.00402663
0.00207471
0.00494494
-0.00325791
-0.00121429
0.00242977
0.00416315
-0.00146821
0.000822437
0.00467164
-0.00568081
0.000171408
-0.00499
0.0016191
0.00142379
0.00191141
0.00323149
0.00027627
0.000885539
-0.0256814
0.0227478
-0.00219724
0.00886833
-0.00124044
0.0100126
-0.0043299
-0.00357733
-0.00221685
-0.00173532
-0.00360583
-0.000664296
-0.00146373
-0.0018708
-0.000318624
-2.79991e-05
0.00362144
-0.0035888
7.00236e-06
-0.00462125
-0.00262702
-6.6737e-06
0.00335013
0.000455142
0.009023
-0.00705251
-0.000970036
-0.00102729
-0.00454088
0.00325041
0.00173567
0.00119707
0.00155132
-0.028227
-0.000450976
-0.00272642
0.0024884
-1.40757e-05
0.000533144
0.00018503
0.00420782
-0.00294992
0.00348631
-0.00162842
-0.00171062
-0.000152854
0.0036906
0.000513465
0.00216556
-0.00586042
0.00347732
0.000319081
0.00469597
0.000952601
0.00554168
0.00315377
-0.00393443
-0.00373572
-0.00101224
0.00408001
-0.000145223
-0.000230086
0.000726665
0.00363979
-0.000274453
-0.00371026
0.00343165
-0.00168459
0.0060326
-0.000832584
-0.00620891
6.61862e-05
0.000544869
0.00289264
1.31019e-05
-0.00564359
-0.000365471
0.00280649
9.6598e-05
-0.00245004
0.00594337
-0.00068005
0.0039334
0.0011794
-0.00231414
0.000343709
-0.00040228
0.00249301
0.000141609
0.00325771
0.000138772
-0.000840132
0.00285764
-0.00456166
-0.000157744
-0.00104923
0.00313664
-0.00152576
-0.000584709
0.00150677
-0.00232284
-0.000248464
-0.015675
-0.00257141
-0.00608212
-0.00313551
0.000688401
0.00305502
-0.0025138
-0.00054743
-0.00383027
-0.000327807
-0.00368521
0.00385924
-0.000581647
0.00286034
0.00102312
-0.0174734
-0.0152409
-0.000245833
-0.00257003
-0.00587636
-0.000236851
0.00356192
0.000858403
0.000488583
-0.00556609
0.000413924
-0.00949228
-0.0199498
0.013276
0.00190403
-0.00213388
-0.000126443
-0.00517314
0.00825718
-0.00284731
-0.000368031
0.0035737
0.00138178
0.00666515
0.00130576
0.00389957
0.000294168
-0.00202839
-0.000958056
-0.00260216
-3.72342e-05
-0.00204866
0.00203019
-0.000639274
0.00217371
-0.00287449
-0.000205696
-0.000862963
-0.00136004
0.0067044
-0.000582157
-0.00121815
-0.00615993
-0.00461244
0.00652016
-0.000962868
-0.00221122
0.00304892
-0.000633528
0.00146209
-0.00343879
0.000279068
-0.0019912
0.00314786
0.000282009
-0.0024542
-0.00445923
-0.000900941
0.000354064
-0.00362004
0.00310471
0.000170325
0.00310029
-3.12587e-05
-0.00677894
0.00139723
0.00610085
-0.000720232
-0.00378075
0.00469118
-0.000638536
-0.00216499
-0.0039666
0.00513819
0.0010577
0.00520262
0.000334757
-0.000397336
0.00299952
-0.000252125
-0.00721296
0.00530571
0.000740733
-0.00132076
-0.00312625
-0.000453997
0.000553116
-0.00211606
0.00155348
-3.7595e-05
0.00158307
3.83362e-05
-0.00229358
0.000409731
-0.000687852
-0.00210513
-1.74738e-06
-0.009335
0.00229067
0.00621176
0.000864922
0.000812913
0.000250807
-0.00530698
0.00359477
0.00127721
0.00715016
-0.00667871
-0.00265865
0.00223878
0.00483551
-0.006102
0.000542042
0.00048901
9.29021e-05
0.00395107
0.000834762
-9.42323e-05
0.00338368
0.000944553
-0.00534696
0.000588266
-0.00331393
0.000724447
-0.00504265
-0.000824667
-0.00164854
-0.00255869
-0.00369652
-0.00065522
0.00130973
0.00222288
0.00371613
-0.00252216
0.00236693
0.000488345
-0.000326458
-0.000973119
-0.00132314
-0.000223266
0.0050113
0.00174236
-0.00642101
-0.0238438
0.00188583
-0.0054304
0.00160702
0.00407501
-0.000224428
-0.00119302
0.00167657
0.000118539
-0.0072921
0.000732806
0.0062462
0.000327209
-0.00160891
0.00512535
-0.000165092
-0.000601095
0.00272764
-0.00283705
-1.63905e-05
0.000958558
-0.00343182
0.00254105
-0.000117474
0.00163282
0.00149805
-0.00275321
-0.000387302
-0.000752039
-0.000115552
-0.00204122
-0.00138833
0.00345217
6.45239e-05
0.00575533
-0.00379838
-0.00120691
0.00123216
0.00461699
-0.000570349
0.00736722
-0.000925157
0.00291459
-0.000386539
-0.00287758
0.000418971
0.00240798
-0.000615283
0.00627584
0.000290763
0.00103346
-0.00270259
0.00791873
-2.07301e-05
0.000212455
-0.00276001
0.00205365
0.000443049
0.00584824
0.00152194
0.0137709
-0.0128334
-0.0015436
0.000548786
0.000979879
0.0121969
0.000612405
-0.00602479
0.0062762
-0.00018395
-4.79775e-05
0.00248031
-0.00395613
-0.000997943
0.00538887
-0.00200336
0.000603106
-0.0040434
0.00029255
0.000257647
0.0107646
-0.00936508
0.000218592
0.0104701
-0.00125615
0.000543559
0.00129396
-0.00519986
-0.000514607
-0.000866512
-0.00192305
-0.0027297
-0.000185994
-0.00192656
-0.000209111
-0.00178601
-0.0027991
-0.000734648
-0.00379325
-0.00218052
-0.000397642
0.00120079
-0.00306961
-0.00059343
0.00289794
-0.00103333
-0.00929653
0.0042229
0.00250038
0.00259351
0.00162033
0.00401058
-0.00140379
0.00342771
-0.00032908
0.00117695
0.00375967
-0.00021057
-0.00489148
-0.000293814
-0.00228023
0.000348761
-0.00592815
0.000661207
-0.00281036
0.000507858
0.00315063
-0.00087496
0.00348921
-0.00164549
0.000117738
-0.00158055
-0.00339052
-0.000737232
-0.00563928
0.00224805
0.00204192
0.00136686
0.00200904
0.00382408
0.00317275
-0.0018453
-0.000829373
-0.000198591
0.00269545
-0.000145758
-0.00432401
0.00650177
-0.00201011
-0.000175164
-0.0022907
-0.000455669
-0.00109704
0.00047894
0.00521899
-0.00282547
0.000497864
0.00176818
-0.000419608
0.0341328
-0.00641363
-0.0212377
-0.00596624
-0.000570826
0.000399899
0.00181889
-0.00497779
-0.000440658
0.000341012
-0.000351455
-0.00221527
-0.00318467
0.000127178
-0.00556229
-0.00562644
-0.00142189
-0.00460166
-0.00264209
-0.00207314
0.00527221
0.000437225
0.00161229
0.00159176
-9.07684e-05
0.00553873
4.10842e-05
0.000424651
0.00303053
-0.00740072
0.00414695
0.000543104
0.00659869
0.000599063
0.0228614
0.00441033
0.000744858
0.000219657
0.00248259
9.66054e-05
-0.00101058
0.00646622
0.000320289
0.00703405
-0.00329438
0.000658026
-0.00193306
0.00291075
0.000303016
4.45899e-05
-0.000968799
0.00417306
-0.000279149
-0.0021312
0.00394449
0.00156087
-0.00312498
0.00447121
0.000613721
0.00734398
-0.0033512
-0.00254507
-0.00153096
0.00285693
-0.00160617
0.00166821
0.00404767
-0.0053563
-0.00039977
0.00882131
-0.00309303
0.00232046
0.000236461
-0.00270535
0.000147181
-0.00065275
0.00276844
0.000196634
0.00233169
0.00032617
-0.00250011
-6.18983e-05
0.000418621
0.00515614
0.00254731
0.000476431
0.00524058
-0.00143007
0.00133686
-0.000747532
-0.000153004
0.00304786
6.08789e-05
0.0021692
-0.000533258
0.00168696
-0.000223902
-0.00441026
-0.000101703
-0.00130991
0.00218509
-0.00113345
0.000513122
0.000928199
-0.00272076
8.99674e-05
-0.00381871
-0.000303403
0.00228008
0.000448911
0.00056096
-0.00535581
-0.00121654
-0.00319778
0.00755585
-0.00351095
-0.000817255
-0.000466968
0.0061165
-0.000833534
-0.000259487
-0.00239933
-0.00203628
-0.000792106
0.00121091
0.00380684
-0.000799164
0.00418035
-0.00811828
0.00179745
0.00211545
0.00619671
-0.000925506
-0.00433613
-0.000994666
-0.00143955
0.00597128
0.000120449
-0.000898218
0.00584102
-0.0038493
-0.00103298
0.00340784
-0.00308058
0.000629559
-0.00197352
-0.000585152
0.000294328
-0.0009349
0.00439661
-4.35507e-05
0.00374751
-0.00172508
-0.00135701
-0.000659661
0.0102751
0.00150822
0.00244195
0.0079707
0.00433719
-0.00265424
0.00429095
0.000769399
0.000101216
-0.00509394
-0.000448268
6.70044e-05
0.00365663
-0.00199197
-0.000285805
-0.00114125
-0.000407182
0.00162953
0.00145484
-0.000617824
-0.00295566
-0.00306796
1.74288e-05
0.00162241
0.00469042
0.000176635
0.00412565
0.00181223
-0.0015191
-0.00193576
0.00337352
5.86669e-05
0.00643304
-0.00182848
-0.00075458
0.0016076
-0.00138142
-0.00397376
0.00407206
-0.000320518
0.000223459
0.00183089
-0.00165103
0.0001623
0.00144656
0.000485993
-0.00533725
-0.000423143
0.000782642
0.00521835
-0.000520925
0.0179357
0.00599298
0.00438386
-0.00271176
-3.30822e-05
-0.00321809
-0.00115124
0.0019297
-0.000217284
5.92126e-05
-0.0035636
0.00344525
8.3104e-05
-0.00134209
0.00600128
0.000110557
-0.00358132
0.000613421
-0.00142232
-0.000261899
0.000405008
3.17332e-05
-0.0261372
0.0201133
0.000902587
-0.00468574
-0.00239547
0.00100151
-0.0045457
-0.00188195
-0.00861014
0.00691944
0.00692013
-0.00355533
-0.00360032
0.000323889
-0.0233875
0.0139711
-0.00407215
0.00451088
-0.00354281
0.000383786
-0.029718
-0.00369208
-0.00426924
0.000289299
-0.0012489
-0.0039608
0.00619047
-0.0021229
-4.25073e-05
0.00269153
0.000742028
3.04408e-05
-0.00560202
0.00491621
-0.000116106
-0.00272154
-0.00379442
-8.76489e-05
0.00438815
-0.00174033
0.000335386
-0.000173769
-0.00912937
0.0139104
-0.000595728
-0.000200984
-0.00300461
0.00337708
-0.000175741
-0.00328625
0.000887545
0.00129367
0.00111026
0.000719639
-0.00409597
0.00445501
-0.00114628
-0.00588943
-0.000594953
-0.000490504
-0.0011511
-0.00236896
0.000473494
0.00396407
-0.00421592
0.000529568
0.00169422
0.00212856
0.00015021
-0.000116186
-0.0005874
0.000888706
-0.0146402
0.00742345
-0.00157713
0.00335159
0.00116937
-0.00072008
0.000280941
0.000162654
-0.00677648
0.00153779
-0.000820194
-0.00193514
0.00312383
-0.000360718
-0.00051244
-0.00235621
0.000291334
0.00141787
-0.00178841