/*--------------------------------*- C++ -*----------------------------------*\
| =========                 |                                                 |
| \\      /  F ield         | OpenFOAM: The Open Source CFD Toolbox           |
|  \\    /   O peration     | Version:  2212                                  |
|   \\  /    A nd           | Website:  www.openfoam.com                      |
|    \\/     M anipulation  |                                                 |
\*---------------------------------------------------------------------------*/
FoamFile
{
    version     2.0;
    format      ascii;
    arch        "LSB;label=32;scalar=64";
    class       volVectorField;
    location    "10";
    object      U;
}
// * * * * * * * * * * * * * * * * * * * * * * * * * * * * * * * * * * * * * //

dimensions      [0 1 -1 0 0 0 0];

internalField   nonuniform List<vector> 
76930
(
(10.3913 -0.643148 1.11201)
(10.9611 -0.467447 1.72713)
(10.8246 -0.615902 0.588071)
(9.12073 -0.140566 -0.99297)
(8.70904 1.1044 1.67537)
(9.20015 -2.54085 0.598388)
(7.92009 -1.8383 -0.449381)
(10.2535 -0.804221 -0.37969)
(9.7429 1.31612 2.36843)
(8.44081 -2.34204 0.0422615)
(5.0094 -0.187239 -0.165383)
(6.52813 -2.20001 -0.976811)
(9.7192 -3.86266 0.671936)
(10.6056 2.16555 0.0466118)
(11.8322 2.10643 0.336943)
(11.9998 3.82861 2.41186)
(9.46286 -1.81489 2.07326)
(9.57552 2.39461 1.74511)
(10.9973 -1.00964 2.33428)
(9.44954 -1.62335 -1.04215)
(6.25203 1.83237 1.73682)
(8.7735 -1.11736 2.56541)
(7.65698 -1.16535 -0.483346)
(8.05215 -0.429028 -0.276921)
(6.9988 -0.0309805 -1.13497)
(6.73176 -0.268783 -0.480412)
(9.36001 3.56821 -3.21038)
(6.68022 -0.187039 -0.438684)
(8.02222 -2.70027 0.720121)
(9.22057 -2.06451 1.13403)
(3.406 1.20086 -0.760227)
(11.0037 0.887003 2.51497)
(9.60798 -0.783086 0.502474)
(10.3828 2.11127 0.0460297)
(9.21514 0.103449 1.79421)
(7.45804 0.985621 0.151556)
(9.34506 0.937731 0.693316)
(10.7252 1.54554 -3.0151)
(3.89361 -0.956069 -0.0643885)
(9.00764 1.48771 -3.66264)
(7.2376 1.32174 1.9031)
(9.88123 1.20226 2.07683)
(10.0352 0.838261 1.75755)
(10.4752 0.887472 2.48707)
(10.248 2.09148 -0.501211)
(7.27552 -0.454535 0.133912)
(8.95536 4.18848 0.442439)
(10.4655 1.00888 1.63257)
(10.1519 0.887045 2.21296)
(9.33831 2.35677 -3.91151)
(8.96004 2.74911 1.85792)
(6.48172 0.477427 -0.574906)
(9.44708 -2.7824 1.0283)
(9.98649 1.97982 -2.3653)
(5.22581 -3.87529 2.48532)
(7.98712 2.59144 0.0804138)
(6.25659 2.17433 -0.426034)
(8.74935 -0.87111 -0.83028)
(9.54934 0.00825504 -1.36192)
(7.48169 2.65952 -3.92846)
(8.28714 -0.679167 3.24159)
(9.27225 0.543836 -1.57816)
(9.89101 -0.411903 1.72778)
(10.1908 0.388257 1.44103)
(7.28453 3.38742 -0.495318)
(9.39411 3.25998 -1.43354)
(9.22164 3.91273 -0.633113)
(8.07971 -0.572571 -0.514267)
(8.74117 -0.0171163 -0.118595)
(12.3483 -1.33877 0.868781)
(9.94842 1.94081 0.240475)
(8.63722 2.0117 -0.494915)
(8.63025 1.4799 -0.641848)
(8.28522 -3.68367 -0.769601)
(8.37925 0.139357 -0.280455)
(9.36673 -0.847194 1.47012)
(7.26226 -0.331108 2.26688)
(6.4698 0.461803 -0.787801)
(-0.048158 -2.16877 0.401431)
(9.81909 1.47961 1.30256)
(6.64741 2.84481 -0.662243)
(8.02569 2.95246 1.13)
(8.67759 -0.45587 -1.10772)
(9.00068 -0.646809 -3.76847)
(6.51936 -0.547013 -1.16014)
(2.58946 1.90636 0.734795)
(10.1688 -1.3581 -0.997289)
(5.97392 0.796132 -2.77368)
(9.05783 0.101742 0.514569)
(1.83556 1.96526 -0.183038)
(4.36213 0.0463805 -1.4244)
(9.61768 0.00772604 0.346417)
(9.26151 0.2488 2.33028)
(9.6009 -0.0986271 1.97749)
(9.26333 2.01648 0.48881)
(7.85854 0.741062 -1.17327)
(8.45788 0.949148 -2.1815)
(10.6678 0.569972 1.84317)
(9.46891 0.110024 1.45834)
(10.3639 1.52075 1.78563)
(14.8319 -0.207349 3.10036)
(5.24773 -1.28897 0.132792)
(12.0928 0.881721 3.10394)
(13.5105 -0.913695 4.06297)
(8.45148 -2.3454 0.772504)
(8.09564 -0.791656 0.890371)
(9.45219 2.8554 1.7063)
(11.2271 3.66627 0.281515)
(11.9771 3.46569 -0.622081)
(9.2793 1.43673 -0.65498)
(7.45318 2.42052 1.21819)
(15.8108 -1.41217 3.94534)
(10.8585 -0.79668 -0.374543)
(8.07552 0.994935 -0.170957)
(7.44102 0.697263 1.32762)
(5.45545 1.08899 1.20396)
(4.73705 0.878934 -0.543583)
(6.97868 1.30043 0.425458)
(11.2312 2.5048 -0.0912606)
(7.66963 -0.678857 -4.10778)
(9.75021 2.3377 2.08782)
(10.1824 -1.62658 0.331648)
(5.37449 1.65107 1.76012)
(7.17705 -0.080948 -0.500235)
(8.29008 0.372616 -0.650147)
(6.09384 -1.20724 -0.65337)
(7.41801 -1.06256 -0.768428)
(4.29984 -1.05056 0.61593)
(8.45953 -0.669739 -2.97702)
(6.71624 -0.0293934 -3.40551)
(7.56522 -1.73616 0.633238)
(8.27837 0.349653 0.131594)
(8.84806 -1.33431 2.86427)
(5.8998 -4.86349 2.44388)
(9.33956 -0.615231 -0.441743)
(7.18158 -0.236313 0.152106)
(3.9118 1.97493 -0.452046)
(10.1552 -0.244614 -1.55489)
(7.6758 -2.48259 1.47496)
(9.23269 -0.480787 0.258485)
(11.2159 -0.793478 -2.25714)
(10.3962 -1.51565 -1.14652)
(8.70399 4.2015 -0.252527)
(8.5681 -3.39076 -0.475626)
(8.88439 0.943531 2.54705)
(9.67011 -0.939025 0.602744)
(8.0584 0.723413 0.541663)
(9.74575 1.8598 0.999908)
(9.52012 -1.36021 0.677076)
(9.36713 -1.74187 -1.23344)
(9.2865 -0.819184 0.992572)
(7.89621 -0.412267 0.267053)
(10.7128 0.0761246 2.88142)
(9.16193 -2.62238 -3.65633)
(12.1736 -0.495186 2.99868)
(10.6916 3.09017 1.57281)
(8.11473 -0.660141 -1.13688)
(10.2719 2.16511 2.06212)
(10.5183 2.47446 1.94746)
(10.6078 1.34126 -2.86799)
(8.0405 1.08854 -7.52806e-05)
(7.44801 -1.75542 -5.17425)
(9.67976 2.02207 1.69314)
(9.26137 -0.955548 -0.233723)
(10.1222 1.30267 1.19727)
(3.90288 2.62904 -0.0434239)
(8.1505 1.75173 2.71062)
(9.65383 -1.92063 0.0290533)
(10.3511 -1.71311 0.483253)
(11.9962 3.14831 -1.95326)
(9.39141 0.330071 -5.58983)
(11.8242 2.41037 -0.978133)
(6.084 -0.432297 -2.41897)
(7.56643 2.66369 0.10105)
(7.11747 2.37691 0.127907)
(11.0096 2.3513 -2.56767)
(5.55092 3.33119 1.06852)
(5.20774 2.58359 0.850313)
(7.48236 -1.19149 -0.479998)
(7.38868 -0.702357 -0.521704)
(8.63465 -1.46641 1.53088)
(8.68133 -2.25555 1.40177)
(10.1487 -0.130207 -0.259877)
(8.62118 -3.01571 2.93158)
(8.48878 3.00269 -3.38105)
(9.68638 0.708293 2.8406)
(8.74984 -0.211621 -1.38556)
(7.35745 -1.04278 -0.150691)
(11.7994 0.491145 1.85211)
(10.7868 1.44154 1.24388)
(11.3254 0.511994 1.34515)
(10.6175 -0.317542 -0.741185)
(10.7728 1.83521 -1.98289)
(10.6538 -1.00713 0.112166)
(9.52421 2.22091 -2.83259)
(10.6091 0.344887 1.38663)
(11.0255 0.857109 1.57303)
(12.5635 0.534004 -0.0405839)
(7.13467 -1.04522 -0.84751)
(5.09941 3.39992 0.972315)
(10.6439 0.989166 3.15236)
(8.28839 -0.0130729 0.518959)
(8.67879 0.853728 2.5382)
(9.42702 2.82058 2.58143)
(7.61013 -1.06138 -0.677123)
(8.66211 -2.55311 0.645338)
(8.95725 -1.64941 0.565545)
(9.73864 1.33267 1.47045)
(6.73643 0.997864 0.764247)
(9.45116 -0.339591 -1.71437)
(9.90776 -0.957335 -0.35255)
(8.71671 -2.10962 1.1639)
(8.70902 -1.15648 -1.15391)
(7.23029 -1.11174 0.497713)
(9.58003 1.11331 0.788656)
(8.92524 1.23777 -0.480498)
(7.17741 -2.14364 1.00434)
(11.2418 1.60305 1.66933)
(9.49482 1.01679 0.916169)
(8.44024 -0.453192 -0.0841427)
(10.9382 0.583963 -4.39207)
(9.73188 1.18016 1.35375)
(9.57058 -2.56198 -0.914488)
(6.00578 -2.35869 -4.63475)
(7.45309 2.73083 -0.400949)
(8.61835 -1.03525 -2.27903)
(7.78973 1.93979 -0.338737)
(9.65242 -0.172969 0.2528)
(6.90516 1.32439 -2.53192)
(10.4386 1.59969 -0.183253)
(7.953 0.410074 -1.77447)
(10.0776 1.59586 1.15989)
(9.47483 1.62909 0.459845)
(6.33156 -1.18728 0.983973)
(9.88372 0.905475 -0.214246)
(6.75267 3.3154 -0.629681)
(6.82703 3.04286 -0.445101)
(10.0134 -1.22967 0.1956)
(6.54411 -1.00992 -1.02482)
(9.18042 -3.02832 0.223369)
(9.46621 -0.312772 1.37163)
(13.574 -0.0591512 1.76875)
(11.5838 1.01944 -2.20119)
(9.50634 -1.41372 0.793388)
(9.26404 -1.66802 1.91461)
(11.5307 2.96457 1.18641)
(8.81515 -0.576742 0.12667)
(7.26779 -0.78356 -0.281574)
(8.93011 2.98828 1.57053)
(7.94235 -1.34858 -0.189916)
(10.5597 0.702147 1.78347)
(5.862 0.565608 -0.146805)
(13.4988 3.20265 1.80629)
(3.16096 -2.01318 0.324052)
(1.68435 -2.22977 0.738154)
(9.27132 1.33646 2.29662)
(8.79575 -2.52721 1.72414)
(8.03534 -0.981381 1.89468)
(7.10037 0.353554 -0.353513)
(7.11406 -0.408222 -1.38884)
(9.58859 -0.408529 -0.869309)
(9.72319 -0.444733 1.09563)
(8.65738 -1.04089 -2.40399)
(8.05768 1.40985 -0.107425)
(8.3015 -0.69555 -2.52859)
(12.4765 0.44219 -0.150198)
(9.37696 1.37809 -2.51455)
(7.29263 -3.1792 1.73111)
(5.40788 1.08155 2.01264)
(9.58131 -1.8249 1.88449)
(9.70592 3.05299 -2.17698)
(9.19718 -1.29972 -1.9016)
(9.70402 -1.03369 -2.16394)
(5.58605 -4.4405 -0.117816)
(7.1895 1.78063 1.83533)
(9.0095 2.81087 1.62438)
(6.65403 0.0486838 -2.3884)
(9.24435 -3.43653 -0.784569)
(6.28445 -2.38595 0.885917)
(9.07221 2.54271 -0.355422)
(7.37464 2.29956 0.634722)
(10.2879 -0.77044 1.28965)
(9.38519 1.41617 1.76241)
(9.15475 -1.32446 2.05977)
(9.58685 0.0606199 0.127847)
(7.74562 -1.16256 -1.59592)
(8.54523 -0.604744 -1.97695)
(9.59957 -0.314489 -0.742646)
(11.98 -0.485891 -0.833019)
(10.7894 -0.130389 -1.44297)
(6.96277 0.544084 -2.44153)
(7.06089 -0.108633 -1.32601)
(8.42933 2.21476 0.0238546)
(8.32791 -0.427208 -1.14503)
(9.23314 -1.05979 0.47893)
(9.04794 2.12703 0.701125)
(14.2645 3.14149 1.6156)
(8.45315 -0.809454 1.05385)
(7.35521 -0.841734 0.0230603)
(9.41782 -0.308764 0.64068)
(3.91574 -5.8348 -0.110013)
(9.23263 0.867092 -2.47402)
(9.75588 1.37343 -2.50949)
(9.36125 -1.57429 -1.60894)
(5.67675 -3.41337 -1.95312)
(10.7246 2.79331 -1.8097)
(9.89083 -0.439633 1.35873)
(8.00572 2.32637 0.177016)
(7.73794 -0.186087 -2.96341)
(9.5883 -1.28234 0.853612)
(10.4264 -0.157559 0.596521)
(8.6752 -0.483176 1.24155)
(4.74357 -1.8483 -1.01496)
(7.10854 0.912805 1.01142)
(9.51743 -0.240888 1.25664)
(8.57294 -3.13117 1.13627)
(7.62541 -0.125408 -0.606213)
(8.70066 -0.280038 -0.431203)
(7.47228 1.69541 0.122993)
(7.36192 1.7751 0.550195)
(8.11878 -0.248686 0.486128)
(7.91669 0.0256072 0.313473)
(9.95005 0.126507 0.884164)
(6.11031 5.07897 -0.849391)
(6.82998 4.56812 -1.30414)
(11.1165 -0.112678 1.29054)
(10.0444 -2.03055 -0.612362)
(8.78119 0.576602 1.8607)
(11.1806 2.64959 1.18044)
(6.5874 -0.0631127 -2.82278)
(10.1488 2.26656 -0.723271)
(7.08025 -2.67166 -0.934866)
(10.6909 0.166121 0.588353)
(8.29165 0.66898 1.27385)
(4.22991 -1.71977 1.12975)
(8.26673 1.20117 -4.60314)
(7.44334 1.14874 2.19358)
(7.40524 -0.189693 -1.11441)
(13.0901 0.535899 3.3476)
(6.23098 3.34997 0.688977)
(6.42808 3.44219 0.593703)
(7.73273 1.4372 0.447501)
(10.0796 1.46836 -0.243879)
(9.79912 -0.501773 0.685354)
(5.57856 0.170432 -1.0606)
(9.39861 -0.376986 1.7174)
(10.0596 2.04257 -1.13095)
(7.68946 1.70749 -0.484314)
(10.9828 -0.733125 -1.25767)
(10.4861 -0.544481 -1.6077)
(9.14811 -2.55648 -0.0315573)
(9.51237 0.410372 -0.523831)
(5.83315 -3.06667 -2.93433)
(10.5552 1.98463 -0.932225)
(8.25699 -0.704005 -2.70315)
(9.81006 1.56819 -1.86571)
(9.04263 -1.24586 1.61805)
(10.3024 -0.74421 -1.22598)
(7.70547 3.22357 1.88056)
(9.62431 1.43493 1.70715)
(12.467 -1.02919 1.66052)
(10.0003 2.22536 -3.6021)
(10.9434 2.39391 -3.53671)
(8.24376 -2.11521 0.548549)
(9.49967 -0.498322 -0.00558883)
(9.35489 -2.65246 1.42698)
(8.82741 -1.10501 1.54101)
(10.8514 -1.22861 1.86666)
(7.61247 -2.14068 -1.01774)
(12.4188 0.467536 3.15028)
(7.90233 -2.13685 0.00901608)
(8.18746 -1.08202 1.20678)
(10.6798 0.383635 -0.25125)
(8.90367 1.43794 -0.0816042)
(8.35844 1.00165 -0.430068)
(8.80671 0.817949 1.48779)
(9.23351 -0.643441 2.43184)
(7.64059 -0.556244 -1.28222)
(7.8338 -0.681772 0.210876)
(9.88966 -1.41429 -0.047705)
(1.1382 -2.04112 1.06975)
(14.0076 1.64184 -0.149856)
(6.78073 3.34246 0.613962)
(7.19912 2.36594 0.6275)
(8.52179 -0.774571 -0.731567)
(7.28213 -0.762578 -0.635051)
(5.51647 1.00517 1.22548)
(8.45266 -0.700255 0.597125)
(4.05709 -5.78524 -1.32053)
(9.07132 -0.853464 -2.3891)
(10.2329 0.680914 -0.949754)
(13.2021 0.411373 2.06864)
(9.96856 -1.3044 1.2149)
(9.84276 0.0769797 1.24807)
(8.05728 -1.19757 1.07765)
(7.45201 -1.78177 0.827597)
(7.70524 -1.49556 0.156901)
(7.13938 -1.28725 -0.893928)
(10.7148 -0.681681 0.455656)
(9.93345 0.16063 -0.582331)
(6.61879 -1.47149 -1.69219)
(8.20078 -2.01872 1.555)
(8.07739 -0.342228 0.742672)
(8.07807 -1.57611 -1.78835)
(7.94918 -1.71456 -1.93505)
(6.54573 2.30809 0.845995)
(10.0749 1.44538 -2.41742)
(9.7923 0.0195805 1.45252)
(9.96628 3.50119 2.01867)
(10.6849 3.48521 1.67237)
(9.42604 -0.308926 0.481845)
(3.56494 0.429327 1.50448)
(9.5317 1.18437 1.22569)
(9.93622 0.099177 0.430405)
(10.0657 1.39602 -0.746676)
(11.3588 -2.94571 1.87201)
(11.3363 -0.417173 1.30433)
(6.19036 -3.68042 -1.7968)
(6.56937 -2.59604 -3.06127)
(9.909 0.396721 -2.67582)
(10.777 1.26586 -1.1729)
(6.98951 -0.647481 0.893953)
(8.81721 -1.39851 0.861784)
(11.8107 0.539663 -0.586316)
(9.83371 -1.55745 2.28258)
(7.63181 -0.780476 0.0704176)
(8.89492 -0.208635 0.375523)
(6.95123 2.31099 1.13307)
(6.18295 1.16355 -0.0822696)
(8.59644 -0.343418 2.16568)
(7.96517 -1.95663 -0.382221)
(13.1965 0.665798 1.64465)
(1.90281 -1.10524 -0.254271)
(11.006 1.74546 1.63475)
(4.00098 1.85196 0.248155)
(5.28078 0.527345 1.84112)
(9.08887 2.7046 -2.15786)
(11.8288 2.42364 1.05951)
(9.23458 -1.83838 -0.499815)
(8.42386 0.67502 -0.648236)
(8.12734 -0.71748 1.7765)
(9.4288 -0.386674 -0.525905)
(9.53965 3.68063 2.53178)
(10.3371 1.06939 2.67202)
(11.4619 3.20988 -1.95095)
(7.06585 2.60215 1.89661)
(7.02129 0.0282474 0.308193)
(4.85177 2.17689 0.84255)
(6.70072 0.353308 1.86849)
(7.46109 -1.36356 1.01974)
(9.22563 -0.172075 -1.66724)
(13.7647 -1.09588 5.35285)
(10.9765 0.421006 5.28676)
(9.63574 1.17533 -2.88679)
(9.83141 0.515718 -3.10021)
(10.4557 -0.121014 2.0169)
(13.2307 0.950441 1.77253)
(8.58413 -0.712713 2.52138)
(9.05467 -1.25867 1.73224)
(6.84298 -0.398734 -3.24021)
(7.94724 -0.708229 -2.45518)
(7.93821 -0.498187 0.133574)
(9.56624 1.09269 0.390958)
(7.17687 -2.24394 -1.00504)
(8.87836 0.453593 0.863842)
(7.94855 2.61048 -4.00978)
(7.90818 -1.21745 1.04226)
(7.0967 -0.30494 -1.29895)
(8.27008 1.47486 -0.841129)
(9.38773 -0.190254 0.184999)
(9.37342 -0.613127 1.68811)
(9.9343 0.359745 0.395375)
(11.3839 1.14723 3.11145)
(7.98993 1.76645 0.036569)
(9.51221 -0.679303 0.34879)
(9.47163 0.38316 0.524671)
(5.35079 1.72274 -0.0189021)
(9.60691 2.04525 -3.23208)
(7.03014 -1.76845 1.67794)
(7.29539 -0.816022 -0.822978)
(9.81732 -0.399804 0.148856)
(8.72288 3.54894 -2.02469)
(10.0824 -0.815706 1.21191)
(10.181 3.36057 0.928827)
(9.16466 -0.0866383 -2.91837)
(9.80067 -0.706658 -1.98799)
(5.2274 2.84634 1.42748)
(11.0319 -0.722943 1.54731)
(8.33159 -1.03821 -1.18022)
(9.75834 -1.29361 -1.56134)
(6.52428 -0.106461 -0.522441)
(6.81479 1.81917 -0.402484)
(5.58368 2.22198 -1.13635)
(11.0404 0.705773 -1.38785)
(10.056 -0.62983 -2.07103)
(10.483 0.998506 2.59224)
(7.98852 1.93756 2.68811)
(9.24447 -0.511895 1.00643)
(6.75273 1.72745 1.76625)
(6.12746 -1.26828 0.746554)
(9.9443 -0.193702 0.460301)
(9.50023 -0.236632 1.31952)
(8.13775 0.571017 0.0889426)
(8.71736 3.12529 -0.293909)
(7.67043 1.50884 0.847361)
(6.50589 0.646012 0.250428)
(7.09298 0.856199 0.0603676)
(5.06367 -0.275224 1.22217)
(6.62153 -0.0943266 2.16297)
(9.63429 3.60432 1.91107)
(7.27601 -3.43231 1.91583)
(9.6604 -2.24175 1.88097)
(9.51941 1.09157 -1.31694)
(10.6501 0.461873 1.1485)
(9.82842 -0.191137 1.22306)
(6.76614 -3.01729 -0.196405)
(6.88479 -0.125375 -2.16477)
(7.99573 0.0436542 1.08555)
(9.61993 1.34228 2.33778)
(6.41791 3.83591 -1.47617)
(9.08334 2.86649 -3.14224)
(8.43567 -0.452977 -1.91116)
(9.91877 3.12069 -2.35202)
(8.63084 -0.580459 -2.39753)
(7.63389 -0.478017 -2.49396)
(9.06934 1.44437 0.826523)
(5.77082 -1.30389 -0.311461)
(7.64802 -2.64425 -1.26247)
(7.29541 -1.61615 -0.836421)
(8.81147 -0.573914 1.22658)
(7.00836 0.393354 -1.96439)
(2.88413 0.943154 -0.244225)
(8.60605 -0.663837 1.33855)
(12.2375 2.46004 -0.189604)
(12.5524 2.6599 -2.10052)
(5.25912 -2.3029 0.891865)
(8.63672 -0.939129 0.353395)
(8.92448 0.929764 1.07929)
(6.49549 1.28967 2.22078)
(8.24244 -0.944031 0.471002)
(12.0419 1.20613 -1.78866)
(7.07 -1.83184 -2.62934)
(7.5101 1.08182 1.0062)
(9.56566 -0.508871 -0.510685)
(4.66234 -0.917406 0.00764596)
(4.34064 2.96766 -0.142993)
(9.55131 -3.09525 -1.09295)
(9.4172 -2.51076 -1.29136)
(10.6009 -4.63157 2.8858)
(10.3819 0.718865 -1.20203)
(10.8168 2.68664 -1.38375)
(9.39974 -0.426825 -0.638526)
(9.85626 -0.203801 0.219421)
(9.1582 1.04165 -0.352434)
(11.4028 2.3644 -0.634915)
(7.31335 2.3175 -1.52505)
(10.3295 3.78281 0.203405)
(9.66236 -2.89028 -0.34018)
(9.86389 -0.0728218 -1.8402)
(7.42435 -0.383499 -1.23432)
(7.07888 -0.545314 -2.22156)
(7.1493 -0.417295 0.0355719)
(8.13736 0.699993 -1.73149)
(8.57453 3.12714 -4.68118)
(8.65583 0.823496 0.147601)
(10.7906 2.20107 -0.67971)
(10.3439 1.08515 -0.842955)
(10.5991 1.33055 1.41944)
(10.8894 1.39487 1.4858)
(10.3433 -0.713022 -1.42371)
(10.4087 0.737886 -1.72968)
(9.31149 2.48982 -0.234106)
(7.00745 1.76266 0.515301)
(9.12731 0.46213 0.327108)
(9.59964 2.2837 1.06232)
(13.3041 0.377015 1.09)
(7.39075 3.04915 -1.83583)
(7.38558 1.70945 0.378452)
(10.4041 1.00602 -1.39728)
(4.33928 -0.578094 -2.9406)
(7.68828 -0.652909 1.12696)
(8.67819 0.308187 1.72096)
(8.44436 0.195851 1.60051)
(5.60401 -1.66237 0.894418)
(8.53485 -2.03806 0.441144)
(7.82173 0.462604 -0.946528)
(7.09435 1.01671 -0.132558)
(6.02126 -2.57749 0.76837)
(1.21693 1.99935 -0.24044)
(9.97976 -0.610862 -1.94892)
(9.58027 -1.15975 0.172277)
(11.8147 -3.96792 2.13146)
(10.3131 -2.8704 1.10724)
(7.5106 -2.14857 0.330786)
(5.46534 -0.645112 -0.119732)
(9.05673 -1.39107 -0.181425)
(10.2004 -1.2426 -1.77853)
(9.41498 -1.57343 -1.65574)
(4.57752 1.61951 0.377357)
(6.4265 3.62868 -0.605259)
(8.04123 0.426984 1.47313)
(6.02467 -1.2346 1.25227)
(9.40947 3.53857 2.29763)
(11.4783 3.12173 3.33243)
(8.46569 -0.0977929 -1.41201)
(9.22523 3.95003 0.376149)
(8.06207 0.784909 -1.46427)
(9.5367 -0.622001 -0.635178)
(11.8331 0.0470533 2.58804)
(10.6679 3.52681 0.742946)
(10.2196 4.15331 -0.227151)
(9.14361 -0.862707 -2.51292)
(9.07505 1.34153 -2.34377)
(8.60687 2.91227 -0.79478)
(8.61268 -1.49928 -1.15938)
(8.05872 -0.499867 -3.41428)
(8.04545 -2.95717 0.555073)
(8.73644 -1.95811 0.595382)
(7.07531 3.17153 0.865973)
(11.22 -0.237911 1.93801)
(10.4978 -0.570857 1.39411)
(4.17309 1.42952 -0.557162)
(2.50865 -0.512293 -0.119532)
(6.93414 -0.0420002 1.8876)
(6.17851 0.370455 1.01568)
(11.3526 -0.688008 1.4332)
(10.1652 1.21352 1.36492)
(7.72235 -2.53375 0.375372)
(8.30777 3.07008 -2.84775)
(10.2291 0.372917 -1.72173)
(7.55323 0.437438 -3.5447)
(8.25754 -0.86204 -2.22366)
(9.08798 1.27788 -0.982261)
(9.82314 1.32162 -0.972026)
(10.0392 -0.633904 0.417241)
(9.53395 1.46642 1.56268)
(5.04499 1.55306 -2.20287)
(8.09506 0.376397 -0.0877974)
(6.83349 0.888725 -0.912626)
(11.6583 2.79124 0.737226)
(9.66517 -3.04707 -0.508319)
(7.74967 -0.140991 -2.0531)
(2.93714 -1.6615 -0.00749534)
(9.01484 0.846144 1.52316)
(7.65211 0.347297 1.76469)
(6.8053 3.26695 1.52505)
(9.92941 -1.72937 0.619372)
(6.61157 0.430012 -1.75365)
(7.68273 -1.71497 -0.170021)
(7.14981 1.04488 -0.407424)
(5.52818 0.314827 0.854119)
(7.73726 0.935296 0.892131)
(7.89037 2.90519 0.513314)
(9.09912 3.29955 0.201078)
(9.97824 1.26698 1.64543)
(9.47654 2.37591 1.53238)
(10.8324 -2.26961 1.28118)
(9.66261 0.346173 0.634067)
(6.80631 -0.931728 -0.489929)
(7.68044 -2.6851 -0.477923)
(10.2698 0.510492 1.53777)
(10.8434 -1.00592 1.10326)
(10.8813 -1.34002 2.20461)
(7.45894 0.273211 -0.80301)
(7.27448 0.86201 -0.344208)
(13.7834 0.774802 1.94469)
(7.11748 -1.66059 -0.746319)
(7.52979 -1.83044 0.363994)
(3.91714 1.2881 0.342294)
(7.73299 -0.609593 1.77379)
(6.72798 -1.83991 -0.264214)
(8.04614 -0.691842 1.29557)
(5.14915 -1.50237 1.36792)
(7.64477 -1.64139 0.70333)
(10.5975 -0.72443 1.26015)
(2.56552 -1.57905 1.44315)
(11.1086 -0.212935 0.854984)
(7.5763 1.10857 1.12952)
(10.2103 1.82696 2.3118)
(11.5395 0.18626 2.26984)
(9.43608 -1.18052 1.01108)
(4.42904 1.73657 0.66357)
(9.03293 -1.16613 -1.39499)
(5.86595 0.0646607 2.31167)
(11.3102 2.11249 -0.636859)
(7.88756 3.83963 0.579889)
(9.98878 0.984644 0.217997)
(10.6502 1.8974 -2.6173)
(5.9376 2.48572 1.1498)
(5.552 -2.67547 -0.620119)
(9.06232 1.24656 -1.51959)
(5.87047 -0.941471 0.338111)
(6.56584 -1.11483 -0.237339)
(6.13215 -0.570022 0.364202)
(8.94327 2.65936 0.797066)
(9.54349 -3.93386 1.63078)
(5.11506 -0.676865 0.128592)
(7.34849 -0.822828 0.880725)
(9.93672 -0.907612 1.18944)
(7.53037 0.515954 0.256516)
(8.65837 1.17665 1.74957)
(10.6824 -1.07828 2.25363)
(7.76124 -0.0637759 -1.79541)
(9.10706 2.05753 -3.13943)
(5.44216 -1.40932 -1.13917)
(4.74537 -2.35338 -0.755923)
(8.88513 -1.37498 -1.36501)
(9.41484 -1.62724 -0.565464)
(9.71463 -3.21698 0.192125)
(9.22252 0.256935 1.99431)
(8.86142 1.23989 0.619744)
(7.05778 0.353219 1.43765)
(8.56488 1.4649 -3.88983)
(7.93653 -0.470592 -2.1215)
(6.42652 1.09546 -0.334586)
(3.66694 -3.81691 0.634942)
(9.81936 -0.231103 -1.65499)
(7.40256 -0.912176 2.23678)
(9.93955 -0.368558 2.60278)
(4.74307 -6.00743 1.35563)
(9.60257 -4.48205 2.53353)
(8.52594 -1.35444 -0.302606)
(7.09441 -0.734957 -0.739731)
(6.6069 0.0159861 -0.760107)
(6.07625 -0.941472 -0.877225)
(9.49929 2.11933 -0.61702)
(7.55322 3.02827 -1.6595)
(9.25565 0.56982 0.184209)
(6.63246 -2.72142 -0.725315)
(6.8736 -1.82486 -0.0169838)
(8.90325 1.74214 -2.03341)
(9.52759 1.63549 -1.94158)
(5.98869 -2.48065 1.57527)
(9.70371 2.9469 1.6744)
(10.2344 0.243215 0.473008)
(9.79684 -0.0237963 -1.91164)
(10.1825 -1.18489 0.956979)
(10.2052 -1.1709 2.61944)
(8.93191 -1.47278 1.61289)
(7.45796 -0.246985 0.955257)
(10.8109 2.74629 2.44761)
(13.6137 4.0211 3.28636)
(9.62075 0.552984 1.94481)
(13.7363 -1.26405 0.788313)
(7.70877 0.0493934 -2.40925)
(9.74176 -0.714416 -0.379852)
(10.6313 -0.428496 1.5734)
(6.6969 1.52527 -1.358)
(5.78432 1.11808 0.348692)
(7.54862 1.4501 -0.262245)
(11.7345 0.32938 3.4618)
(7.48495 0.92674 -1.12444)
(5.32213 1.77815 -0.477438)
(6.84395 2.42659 -2.00258)
(10.7859 1.12213 0.53318)
(10.3811 3.48783 1.6835)
(8.10382 -2.22422 0.494985)
(8.98565 -2.17825 2.30863)
(11.3276 2.89706 -1.93638)
(9.81769 0.522618 0.261366)
(11.6308 0.25029 -1.20242)
(8.33043 1.06621 -4.3964)
(6.26517 1.95921 0.575258)
(8.59584 -0.479148 -0.698855)
(14.6092 3.14588 1.97143)
(8.95976 -0.890392 0.813944)
(6.35894 -0.260321 -4.62707)
(8.42539 -0.952257 -0.260535)
(7.06683 0.597891 0.378928)
(9.86411 -3.24453 0.619613)
(8.08822 -1.326 -2.62242)
(10.3996 1.6028 1.62317)
(5.28802 -1.0374 -2.33201)
(9.16584 -0.642442 0.601654)
(9.72636 0.884036 -1.97113)
(11.4008 3.42771 -2.55583)
(12.3503 4.5495 -0.0829657)
(9.58058 0.709105 2.37405)
(7.31709 -2.91189 -1.30966)
(6.89149 -1.60755 -1.4679)
(9.88579 -1.28879 1.92911)
(11.4377 0.488724 -1.1491)
(8.89678 -2.17281 -0.910648)
(7.62564 1.46922 -1.06114)
(7.85474 0.902393 0.100032)
(9.03298 -3.35796 -0.134586)
(8.77981 0.732255 2.04631)
(9.54842 1.05842 -3.11781)
(7.49128 -0.755838 0.0339681)
(7.98355 0.852804 0.444798)
(9.3163 2.65234 1.94791)
(10.4382 -0.577325 1.00956)
(7.68259 0.580458 0.536892)
(7.37464 -2.58223 -1.5387)
(7.89519 0.135218 0.996766)
(10.0869 1.07137 -1.95393)
(8.40704 0.782962 -3.58196)
(9.35187 -0.494714 -3.05192)
(9.30982 -0.485403 -2.87839)
(6.73502 2.2361 0.248187)
(10.2436 0.934257 2.14243)
(9.84403 0.730946 2.18751)
(9.10229 0.158307 1.22131)
(10.9627 0.287394 -1.36298)
(10.885 2.38971 -3.06759)
(6.4399 2.56625 -4.80906)
(9.18599 -1.92316 -1.08681)
(8.91239 0.601728 -1.11158)
(11.7419 0.609839 -2.46581)
(11.4332 2.83668 -0.849218)
(7.01817 -1.43078 0.109021)
(4.98148 0.18146 -0.225406)
(10.3866 -0.561401 0.416182)
(6.18703 -0.114533 -2.9895)
(12.2117 0.486905 2.72489)
(8.92381 0.255179 -0.523655)
(4.67084 1.18418 0.238024)
(7.18637 0.630323 0.235947)
(7.19262 2.24971 1.18398)
(10.7318 3.46395 -2.69115)
(5.44256 -1.68953 0.063725)
(12.4151 2.77065 1.46832)
(9.85942 -2.91945 1.01823)
(9.46287 3.75459 0.698067)
(9.33831 2.54628 0.874049)
(8.92658 3.66631 0.602558)
(12.5824 1.59134 -0.547758)
(12.3761 2.53889 3.35739)
(14.8429 2.08723 1.28513)
(11.3853 1.44087 2.98232)
(13.994 1.86512 3.3828)
(9.70962 2.44012 2.96185)
(7.80967 2.52512 2.27246)
(6.6142 1.95139 0.73807)
(8.49611 0.613458 -0.0644617)
(10.272 -0.150909 3.35989)
(10.124 -0.257155 2.22439)
(8.98449 -0.411101 -1.13498)
(8.97881 2.1237 0.616648)
(7.68549 -2.11466 1.59534)
(12.6568 1.83736 2.40154)
(11.9841 2.59172 0.531287)
(6.23346 -1.01674 -0.632622)
(2.97199 -2.81596 0.819922)
(9.35841 1.72341 -3.16821)
(7.05858 -1.76334 0.328724)
(7.65976 -1.67511 -1.7776)
(8.61014 1.35477 -4.46908)
(9.93892 3.09045 0.647412)
(10.0181 0.511625 1.12591)
(7.3318 -1.03163 -1.07791)
(8.7293 0.257407 -3.28706)
(10.8786 1.13035 1.87769)
(5.07923 -0.208365 0.532675)
(7.95305 0.484393 -0.0484778)
(9.76382 -0.0323877 -1.90316)
(9.03913 -1.12059 -1.56491)
(8.01615 -1.47967 -1.55561)
(8.10184 -0.236866 -2.38568)
(7.827 0.076967 -0.639182)
(11.6489 3.65876 2.0426)
(6.95904 1.15356 0.531995)
(11.0399 1.46956 -0.97497)
(5.20198 1.63247 -1.46538)
(9.45974 -0.194634 0.447774)
(7.39811 1.14264 -3.41186)
(7.42872 0.116263 -0.901596)
(7.81747 1.8214 2.40628)
(6.48011 1.99443 2.06019)
(9.18333 1.39957 -2.43414)
(10.6991 0.884188 1.47354)
(6.59961 -1.80733 -0.281974)
(5.21999 -0.390517 -0.480876)
(10.0249 1.77536 1.42922)
(10.3184 2.60009 0.424652)
(1.83256 -3.35543 0.820815)
(6.93859 -0.0141587 -1.34195)
(7.5389 -0.513685 1.44245)
(7.46899 -0.815328 1.13078)
(6.37166 -0.383451 0.570919)
(9.79394 2.82502 1.40777)
(13.2175 -0.374325 2.1393)
(9.09071 -1.38655 -1.22215)
(6.68911 -1.15766 -0.153627)
(9.5257 -0.193995 -0.398331)
(8.69928 0.0441122 -0.052922)
(9.48775 -0.108295 1.29497)
(9.68317 -0.393742 1.4604)
(9.9467 0.883069 1.60876)
(9.75738 1.91785 -3.25641)
(8.65624 4.62201 0.474805)
(9.70111 0.539053 -1.45641)
(12.685 1.16964 3.05958)
(6.8879 0.501989 -2.11631)
(6.57848 2.69122 -1.01599)
(6.17471 0.259739 2.34744)
(8.69949 -0.0367042 2.58951)
(10.6955 -0.656892 0.633209)
(12.8555 2.30241 3.48926)
(11.3671 1.88554 3.19559)
(7.59199 -1.20779 -2.77002)
(10.2158 1.72167 -2.01261)
(9.10876 1.22709 -2.04197)
(9.22907 0.747901 -1.02823)
(8.94857 1.27036 -1.22125)
(10.5331 -0.0165275 1.37966)
(9.52348 0.0643663 -0.888067)
(9.6276 -1.81905 -0.404327)
(4.94245 -1.66782 0.546801)
(8.74368 -1.71243 -0.251224)
(10.1333 -1.35991 0.534603)
(5.97012 3.12146 0.494135)
(10.0545 -0.050452 -2.70394)
(11.0767 1.20161 1.43537)
(13.1428 2.72476 -0.277712)
(7.45975 -1.62498 -0.455568)
(11.5411 2.21233 1.79878)
(9.73148 -1.07798 1.46096)
(8.75586 -2.32373 -1.50355)
(10.1461 2.59056 -1.67266)
(10.2684 -2.88929 0.205096)
(10.3159 0.536331 1.46356)
(8.05099 0.695826 -1.98104)
(10.1994 0.420404 -0.115708)
(11.9298 3.05942 0.551716)
(7.33322 3.62845 2.4394)
(10.5733 2.22307 1.36849)
(9.19595 -0.475612 -4.88275)
(6.41225 -1.75548 1.03491)
(5.5921 -1.83493 1.47323)
(8.47284 -1.39621 1.12058)
(8.52443 1.69997 -0.200373)
(9.83443 2.63394 0.221231)
(8.25483 -0.588377 -1.93392)
(8.68995 -1.04317 -0.344624)
(9.55793 -2.37202 1.72925)
(8.28165 -0.175631 0.417784)
(7.32302 -0.540416 1.39266)
(11.8766 -0.530713 0.521561)
(7.39975 -0.945413 -0.321597)
(11.2898 1.4505 1.74806)
(10.0921 -0.616315 1.24762)
(7.67576 -0.466644 -1.36348)
(7.73293 -0.482235 0.589228)
(8.73929 -1.03524 -3.07822)
(6.76194 1.67891 0.572608)
(5.02264 -0.523362 -0.422314)
(6.66886 -1.19724 -1.07572)
(3.70584 2.27057 -0.188721)
(11.033 1.11096 2.76152)
(9.51533 -1.22586 1.30379)
(11.0066 1.66633 -0.992442)
(8.10592 0.138551 -0.821755)
(9.25085 -0.264964 1.98512)
(8.9867 -0.284768 1.27636)
(7.33091 1.48389 -1.68271)
(6.45775 -3.17135 0.922067)
(7.50794 -0.872798 -0.864981)
(9.02284 -0.323419 0.289647)
(10.3652 -2.10752 2.88353)
(9.87719 1.22983 -2.02146)
(7.00784 0.640065 0.778675)
(8.26168 0.926247 1.68633)
(10.1553 -0.44774 -1.48293)
(8.23059 -0.738849 0.00308081)
(6.12196 -0.923083 -0.454569)
(9.52753 -0.407897 -3.5758)
(8.84104 0.502239 -1.48467)
(8.68203 1.02958 1.01277)
(9.67861 1.90323 2.87579)
(9.8592 2.85385 3.08405)
(9.75452 0.624313 -3.48269)
(12.1406 0.828695 0.731061)
(7.66883 4.35857 -0.212887)
(12.2013 2.48343 2.47101)
(5.95821 -1.57812 0.0866275)
(7.26375 -1.34259 -0.51605)
(9.32057 -1.19026 -1.10614)
(9.30258 1.57967 -3.48462)
(7.01363 -0.935682 -0.741992)
(8.23712 -0.818683 -0.719878)
(9.63964 -1.7656 -0.455997)
(9.09868 0.603865 -1.43732)
(7.26642 -0.762017 -0.226474)
(9.15382 -1.45029 0.780807)
(2.39657 -5.60681 0.800123)
(9.59727 1.82996 -0.119531)
(7.47947 1.45718 -2.16265)
(8.17741 1.4895 0.437577)
(5.45003 -0.86927 0.416303)
(7.91164 -1.00703 -1.5739)
(12.5128 1.82931 2.63289)
(4.71328 0.382267 0.52926)
(10.5762 -0.00884432 -0.0848181)
(9.76168 1.09879 1.79677)
(10.847 -0.312448 1.58511)
(3.27006 -3.76344 -0.944873)
(2.55898 -2.92444 -0.109416)
(13.1841 2.79135 1.29845)
(7.3323 3.5791 0.46917)
(9.92491 3.55937 0.926242)
(8.8386 -0.341682 0.813654)
(9.6481 -1.34367 1.16483)
(9.66928 -0.636723 2.06291)
(8.10339 2.39912 -2.21138)
(8.32173 -0.22348 -1.06628)
(7.78875 2.70337 1.25947)
(1.25315 -2.33651 -0.558216)
(8.28702 0.118376 0.63213)
(3.20836 1.63591 -1.15281)
(11.5888 -0.416928 0.54124)
(9.55005 -0.736599 2.46979)
(6.73892 -0.6127 1.79522)
(9.33132 -0.43575 1.8548)
(9.07619 0.24811 1.25315)
(5.26409 -1.30385 0.0661144)
(7.36919 1.26775 0.308467)
(9.1159 -2.00173 0.582071)
(7.5482 -1.38347 -0.882289)
(8.15522 0.0265076 -0.247436)
(9.91662 0.122418 1.46104)
(5.99924 -0.742808 -0.294599)
(10.3365 0.603039 0.487873)
(11.5653 1.76632 1.42577)
(6.06471 -1.89079 -0.27093)
(10.6588 -0.302105 1.6034)
(11.3314 -1.61534 2.4586)
(4.07996 0.435891 -0.388335)
(8.05573 0.800494 -2.97951)
(11.5132 2.18549 -1.69474)
(8.51884 2.50257 -0.130914)
(9.66782 0.162093 0.00938515)
(7.38684 3.09983 -0.265888)
(7.83291 -0.364283 -4.95565)
(10.0413 -0.131935 0.00291932)
(10.975 2.83237 -2.9273)
(6.09657 -2.33782 -1.65328)
(6.3459 -1.86402 -1.36761)
(5.06448 -1.41727 1.78603)
(5.19051 1.34235 -0.340502)
(2.99416 -2.09569 -0.255888)
(7.91173 -1.60369 0.168673)
(9.3 1.11735 0.660218)
(11.1253 -1.93269 0.998257)
(6.75041 -1.54281 -0.33361)
(5.87404 -1.8929 0.486738)
(6.59477 1.40276 -4.59442)
(9.46606 0.00608088 0.280184)
(11.1131 -0.24332 1.70398)
(6.4856 2.04906 1.02179)
(8.31624 1.41883 2.5646)
(10.4133 -0.311158 -1.08522)
(10.0873 0.779937 1.75538)
(9.57082 0.208871 -0.525662)