/*--------------------------------*- C++ -*----------------------------------*\
| =========                 |                                                 |
| \\      /  F ield         | OpenFOAM: The Open Source CFD Toolbox           |
|  \\    /   O peration     | Version:  2212                                  |
|   \\  /    A nd           | Website:  www.openfoam.com                      |
|    \\/     M anipulation  |                                                 |
\*---------------------------------------------------------------------------*/
FoamFile
{
    version     2.0;
    format      ascii;
    arch        "LSB;label=32;scalar=64";
    class       volScalarField;
    location    "10";
    object      epsilon;
}
// * * * * * * * * * * * * * * * * * * * * * * * * * * * * * * * * * * * * * //

dimensions      [0 2 -3 0 0 0 0];

internalField   nonuniform List<scalar> 
76335
(
338.092
59.8691
89.1818
84.1493
89.7692
191.398
288.386
130.045
155.655
155.127
498.958
56.0138
86.6647
68.6792
163.146
85.9293
55.5847
77.6334
54.2689
107.272
509.608
81.604
395.807
391.334
529.672
508.824
355.478
463.21
447.997
86.6209
87.2604
61.842
588.406
154.627
172.864
194.769
627.224
50.3736
222.149
225.27
251.967
346.53
948.053
258.994
268.019
132.756
180.11
118.315
99.5741
103.588
182.281
228.629
168.149
105.46
82.4782
423.834
490.269
141.861
180.574
201.203
76.4654
657.016
663.648
570.814
505.319
418.875
60.7411
84.8928
127.253
77.8232
44.3695
124.631
439.174
552.131
148.957
220.661
406.28
202.69
396.838
494.202
622.749
67.1217
198.837
149.652
323.995
525.835
155.664
558.889
227.538
250.571
124.274
66.5981
105.953
401.722
560.653
86.1654
104.694
45.4393
77.2015
249.521
381.774
371.373
335.483
95.4233
510.888
70.6401
139.753
104.365
113.057
101.476
88.5066
233.035
170.199
406.777
62.8834
186.671
471.97
364.058
372.668
95.4731
317.741
305.948
108.966
65.7705
181.927
376.64
421.873
198.583
186.419
392.148
406.818
985.206
59.0436
346.152
332.44
209.883
239.551
178.821
570.273
94.9971
99.061
81.2505
60.8693
329.455
87.635
315.355
360.327
562.396
185.8
313.246
160.18
280.3
123.736
174.856
260.153
251.643
248.435
176.317
126.869
143.6
484.321
505.599
341.879
217.15
84.9672
326.445
85.1416
260.737
241.474
104.457
304.999
136.104
198.058
145.503
517.349
506.595
289.72
61.132
349.734
150.723
49.4137
55.1867
689.811
80.2076
92.2817
64.9598
660.19
386.578
111.407
743.798
84.387
375.497
117.015
268.93
643.507
597.335
402.235
374.7
84.6559
67.0403
593.243
578.411
388.701
278.255
345.21
323.275
400.041
280.904
98.7128
52.8589
433.899
627.436
631.262
188.403
487.55
343.114
105.683
92.7692
84.0989
83.214
169.301
415.168
391.694
362.551
376.591
437.777
414.285
435.664
48.6213
396.826
46.6067
358.119
344.722
510.12
187.629
107.724
530.136
365.388
497.109
103.337
63.0106
59.3162
187.308
149.777
120.103
307.529
151.9
279.494
159.609
193.704
179.175
419.311
75.9274
164.421
379.693
358.863
300.851
90.1394
171.297
396.613
145.948
51.3234
102.471
239.592
249.489
66.1743
316.207
273.439
449.134
362.651
255.595
249.232
254.526
404.775
129.822
73.8841
265.246
100.266
411.767
616.812
465.488
67.7119
130.557
141.324
226.531
348.818
308.181
199.271
315.28
407.011
359.545
46.7449
156.928
165.756
621.462
560.25
560.945
455.534
327.674
256.85
76.9319
274.662
146.798
99.1601
80.4633
83.7393
77.9268
102.114
76.0771
233.805
428.793
288.726
88.7706
741.767
102.149
78.8295
987.855
148.898
157.505
480.937
449.588
55.4796
472.225
466.033
545.295
69.642
286.608
444.6
162.867
391.257
355.427
351.213
493.488
348.09
631.014
365.893
383.616
77.4615
262.927
93.6866
436.349
453.091
337.469
157.183
725.701
247.226
820.845
99.456
176.923
126.071
84.0566
235.734
694.071
706.771
105.734
579.518
186.512
54.3039
146.725
360.411
83.7797
45.6729
215.69
167.729
199.584
471.532
58.0099
160.869
156.713
59.8915
107.922
119.004
520.851
190.948
190.55
202.866
106.046
1009.31
47.2951
47.8143
137.897
530.642
105.194
458.364
341.431
259.512
263.384
215.469
66.2589
154.298
239.144
500.207
541.466
765.273
867.427
165.527
153.217
422.841
169.609
142.059
454.448
520.004
148.795
123.496
116.721
185.993
91.2393
88.6926
55.6984
62.7608
214.475
992.692
590.214
530.535
149.568
104.515
234.193
398.792
45.927
391.831
396.065
374.077
110.519
437.795
689.524
343.093
508.057
362.781
101.155
249.647
299.924
322.348
325.677
259.389
461.913
125.14
165.881
159.145
248.348
85.605
123.97
142.314
437.08
62.5659
154.319
92.8383
250.428
309.802
496.275
178.722
194.134
156.74
291.033
408.17
407.651
75.0159
200.321
77.5577
291.513
154.9
297.891
98.6816
189.673
180.929
379.8
315.678
45.3033
120.631
136.601
264.071
492.572
178.155
72.4292
170.743
342.814
92.0189
157.154
45.409
45.055
81.0688
107.934
167.915
192.289
526.62
142.026
353.485
296.178
284.036
501.65
159.791
510.899
441.969
43.8819
44.1889
450.784
252.811
191.444
93.3111
280.685
212.456
528.801
549.737
186.677
58.2603
187.264
351.723
231.24
284.475
360.397
344.544
265.818
112.691
170.887
151.064
286.6
56.557
61.4492
113.884
313.631
73.1443
153.632
497.843
318.956
118.344
109.41
588.15
150.054
282.062
96.0994
47.9875
106.17
93.2698
148.046
230.941
356.633
444.421
105.014
62.1894
60.2411
116.111
126.902
117.959
245.489
410.815
373.001
84.2128
87.7093
351.341
377.901
349.633
808.314
149.991
210.175
665.138
45.2208
925.496
317.661
124.592
98.6743
43.7392
43.4609
89.6124
215.586
414.328
82.3495
404.912
130.223
229.563
307.122
155.228
230.356
73.1573
419.427
96.2219
299.552
364.566
358.673
439.511
348.318
141.442
493.04
122.725
65.4313
450.85
49.6045
410.539
123.686
119.585
270.228
140.167
209.272
531.267
504.289
450.066
725.685
766.43
351.315
75.2355
406.149
292.078
323.973
55.4305
79.047
513.917
391.753
320.292
118.347
176.95
108.404
45.0681
45.2204
417.447
162.005
54.2292
57.0829
231.547
56.8118
655.568
69.7699
125.229
74.924
59.5771
1042.25
259.941
366.045
509.977
342.379
606.146
155.255
367.838
158.327
82.3211
124.152
190.589
172.235
46.3316
153.356
265.598
240.457
89.3805
65.3746
317.987
49.0237
139.24
98.5203
59.1338
81.9272
202.819
126.888
413.904
455.814
233.815
202.702
530.231
445.191
175.085
317.662
125.45
138.041
391.011
224.152
372.454
306.643
176.316
148.43
169.76
159.344
141.452
81.2955
181.247
164.175
226.675
119.321
469.767
300.296
163.314
117.983
219.904
106.124
309.462
332.199
371.932
251.207
135.465
45.3555
45.2449
136.528
64.8439
126.917
338.81
96.2721
123.963
156.098
327.592
138.737
185.171
196.219
183.432
81.7888
464.5
335.297
601.409
602.35
394.429
145.659
95.0429
123.325
120.254
107.31
376.876
95.7832
99.4988
359.212
360.325
68.2774
69.5328
311.48
393.826
69.2727
361.002
70.124
390.737
278.284
139.518
149.88
348.739
379.61
367.154
312.113
68.0007
132.739
200.062
347.915
359.843
427.606
82.2645
272.644
405.974
246.077
317.733
192.507
105.123
109.506
505.183
248.478
77.0245
145.847
295.377
44.8083
724.001
356.129
359.055
45.8691
411.424
558.519
315.188
102.002
279.804
428.833
307.657
317.515
65.6135
366.137
62.6178
193.247
146.127
201.928
105.637
157.45
262.988
296.792
186.422
406.184
338.171
644.703
125.158
126.981
58.2468
77.0434
103.121
46.2465
226.265
63.1215
901.306
423.973
69.5344
195.405
301.875
179.62
145.583
140.169
406.4
315.639
98.7342
97.1976
608.081
317.019
43.6127
46.5514
139.956
106.755
289.77
57.5836
55.4741
78.5704
76.748
177.137
63.507
72.4185
100.306
42.8761
52.1944
199.778
353.172
149.932
135.614
352.87
156.085
410.567
199.385
776.643
347.094
367.159
245.772
399.913
424.351
380.566
646.411
62.0009
64.0969
73.0822
141.056
60.6818
182.026
200.269
270.763
321.392
58.0635
64.7579
299.487
72.41
267.086
62.2726
59.5845
210.673
314.957
322.55
151.258
812.652
126.796
218.984
132.092
324.384
535.427
717.14
215.234
141.55
121.432
168.462
228.427
194.289
297.483
78.5848
231.617
67.5188
475.944
45.3349
113.889
114.43
280.394
59.3107
228.902
138.307
93.6599
110.968
154.272
175.206
81.5057
104.694
350.554
94.3319
473.369
270.496
74.436
240.842
387.615
110.742
338.744
156.143
276.627
65.983
75.5059
294.38
137.192
89.0574
85.7336
80.9432
66.7879
89.0208
70.0697
504.237
494.653
129.895
86.8826
1006.49
121.713
88.872
317.415
374.384
666.285
100.972
60.5554
84.3183
420.714
446.577
283.287
249.688
197.821
193.019
138.044
172.326
142.553
211.758
139.623
295.16
154.75
380.858
96.4746
303.125
69.6953
90.7452
627.206
99.1189
265.06
251.102
106.974
210.618
62.6816
43.7404
44.7505
651.547
45.7181
774.524
126.601
78.9954
461.253
76.8974
87.3079
282.962
70.9896
65.2126
132.48
522.382
694.648
576.931
119.674
465.9
436.3
174.977
276.049
630.254
374.269
116.544
48.542
113.773
261.713
238.019
55.1202
42.6057
249.306
190.643
671.15
308.494
400.746
583.546
504.828
88.5446
139.806
52.4047
83.7976
143.572
134.171
446.519
150.161
193.439
425.599
197.589
46.3737
537.729
249.296
81.1608
111.133
107.557
122.206
128.185
106.06
62.6816
324.683
295.8
65.4888
421.428
47.496
44.2572
101.869
72.1261
450.81
51.3841
116.17
153.286
566.821
292.514
367.4
182.484
117.637
119.837
169.42
176.458
44.6489
902.285
68.7552
243.389
652.356
640.078
71.8555
251.172
99.2158
252.503
147.189
45.8716
373.946
148.524
45.6183
379.303
327.334
230.287
120.025
335.358
100.692
174.073
78.3959
78.182
364.66
374.193
146.165
144.119
65.1564
60.9867
152.604
337.95
573.863
45.4562
45.3071
498.28
526.97
495.777
123.048
69.3071
281.465
168.469
639.32
540.974
320.903
85.1323
46.0341
91.1554
435.145
399.421
149.418
223.261
105.201
286.486
115.43
108.252
331.965
64.8499
767.478
84.6931
193.88
220.771
312.388
123.188
242.896
229.304
384.847
195.972
438.455
238.91
62.284
293.783
98.8253
69.8237
588.281
109.872
66.1651
805.715
60.409
740.369
706.501
144.418
190.878
419.514
150.638
500.77
464.981
61.2791
431.758
48.1966
47.7376
395.426
424.358
375.638
114.853
350.694
193.851
124.478
53.0349
198.468
447.971
88.3939
46.6166
46.8343
118.479
85.6561
83.9831
370.553
198.126
743.057
508.625
106.205
83.2174
95.9542
300.568
342.477
404.561
493.279
211.528
394.083
72.3817
363.656
369.446
653.703
580.813
764.67
63.2893
172.169
44.7408
456.539
511.238
317.988
318.643
306.891
206.077
117.685
138.027
790.245
118.765
181.116
309.094
204.578
45.3321
51.9197
442.9
344.453
160.948
147.754
346.072
57.156
114.329
353.222
363.503
115.409
49.7826
223.643
466.967
129.058
107.876
512.782
485.488
56.638
402.488
250.959
214.652
352.807
114.005
344.106
442.067
324.65
90.285
180.568
90.4642
363.702
72.7989
50.4953
383.17
860.292
745.345
304.961
287.807
504.523
152.541
327.652
549.407
428.268
138.729
173.775
187.976
337.852
246.238
607.731
473.008
356.039
81.97
236.007
370.496
43.917
287.536
62.5346
73.04
76.6216
467.51
121.163
127.392
76.5848
482.464
514.987
437.993
74.7642
160.91
162.537
155.298
203.156
568.055
56.1686
211.731
103.289
45.2737
45.2426
44.1591
427.749
456.861
216.975
202.256
310.733
45.2036
165.691
171.052
256.847
338.399
173.789
172.678
85.1296
80.7822
254.843
101.083
235.236
187.878
284.822
219.202
337.566
111.121
203.543
126.646
64.8545
143.911
386.521
384.649
79.8344
100.953
109.985
899.506
139.221
99.2027
523.181
725.728
453.02
125.594
112.753
362.005
199.769
166.428
403.652
459.758
146.471
136.047
364.093
195.763
194.038
90.0343
182.961
64.245
409.849
188.805
165.403
190.87
210.329
345.232
235.111
230.811
476.485
367.391
57.9797
325.735
169.469
114.762
128.524
63.5615
98.7801
385.135
307.098
45.2397
183.758
116.997
113.151
72.3806
99.5032
120.203
118.597
112.606
472.896
149.76
162.772
56.8579
90.9819
71.1876
375.508
322.055
528.838
417.744
122.132
219.293
108.296
356.151
139.905
187.326
121.288
557.094
494.455
484.014
239.37
523.343
258.295
383.611
789.263
149.274
78.45
334.465
337.227
149.567
120.768
203.274
138.663
132.475
412.993
62.0231
97.4768
80.9594
189.888
386.28
62.6267
1162.09
388.134
215.062
190.589
711.595
156.606
298.706
137.355
338.637
365.828
53.2587
332.031
282.69
672.155
118.175
139.972
226.285
146.61
497.378
430.317
465.309
208.179
62.9821
67.0735
442.046
150.034
169.397
128.662
106.26
309.587
153.675
243.093
289.74
35.5033
145.301
121.83
91.3197
143.3
391.684
123.576
75.4678
183.399
69.4842
98.7419
294.969
421.189
502.054
564.87
176.659
46.2749
78.4614
87.1119
413.98
107.408
312.733
144.339
166.341
193.936
297.572
348.766
376.747
850.218
94.6933
70.8313
707.108
319.533
365.3
81.9426
818.44
153.61
328.516
443.3
270.859
165.983
1016.48
622.774
299.219
355.751
169.146
354.616
414.259
479.441
388.805
578.165
329.71
1067.17
710.617
345.467
335.877
366.645
83.2176
75.7219
134.954
45.5375
104.61
243.219
168.956
67.1027
118.004
429.374
442.003
47.295
46.8663
162.774
482.484
500.89
370.972
456.963
42.9924
71.4757
52.1304
67.7954
140.756
550.054
83.6475
189.24
650.455
74.0646
82.4015
80.4021
459.964
104.974
132.116
77.7042
69.2468
471.274
75.5298
498.648
93.8218
338.751
397.278
157.198
127.003
251.165
138.832
64.7206
486.996
68.1764
110.834
302.003
348.984
82.098
558.642
195.927
352.296
291.394
220.262
159.367
322.586
487.719
76.3893
184.623
130.504
112.179
77.422
374.025
161.035
79.393
89.9766
143.045
120.658
226.433
146.546
354.581
377.469
74.3342
104.997
86.6047
45.193
118.65
295.301
90.228
229.229
233.205
203.118
331.03
48.7675
609
349.042
752.053
416.888
188.888
371.114
218.966
302.106
43.5572
43.8389
47.9282
341.368
408.481
444.222
412.617
177.313
129.779
164.871
151.144
141.869
167.011
221.434
351.416
120.829
46.5808
45.5178
95.4203
112.991
235.74
120.298
623.124
696.155
86.2442
57.6597
74.6325
284.205
211.325
150.683
418.835
45.6246
75.8203
223.196
80.8515
113.158
475.339
260.543
124.539
77.5949
354.73
397.871
124.373
203.917
218.728
286.074
336.685
532.882
316.945
437.728
418.063
200.524
82.7098
82.3843
437.63
77.1479
296.352
71.6309
294.592
87.3348
153.906
64.1871
44.2236
44.3186
303.328
521.552
265.084
366.375
334.052
364.566
561.928
360.818
104.984
45.3253
498.221
398.217
202.026
55.8863
148.409
167.711
107.56
128.847
140.639
281.555
78.8693
434.435
258.071
586.047
621.005
269.807
290.512
46.4428
362.008
423.503
471.216
218.179
928.628
589.007
698.016
205.628
202.605
495.979
399.828
91.5207
131.24
177.784
159.65
348.38
514.156
122.569
133.174
131.305
239.342
129.692
380.542
376.253
102.047
695.892
548.823
215.497
95.1997
157.414
484.291
290.387
92.0145
235.702
103.276
278.451
103.608
102.29
165.417
176.267
68.4751
97.4365
420.632
514.746
251.325
70.7421
364.24
576.143
686.745
133.468
83.649
202.478
185.721
45.2821
284.909
835.575
344.094
127.267
450.38
395.395
95.9598
152.454
169.233
162.678
245.154
313.793
48.2633
46.118
739.373
471.563
494.398
367.928
105.797
437.149
104.333
339.257
230.895
228.273
197.911
402.705
364.518
225.711
252.63
69.5628
47.1948
626.896
365.709
51.9996
563.049
627.371
108.177
390.316
71.0676
136.865
306.449
281.818
434.619
472.782
152.547
91.0083
493.777
444.245
168.42
553.866
71.4046
514.635
825.767
387.241
438.527
122.601
275.968
126.087
52.5198
209.869
106.113
540.545
72.7957
163.368
499.269
131.708
100.96
56.8889
277.737
313.505
74.5365
587.707
96.4428
114.239
252.94
61.9835
190.753
46.4399
226.01
67.4207
334.893
370.966
446.752
371.168
411.683
373.564
396.99
163.242
472.87
52.1045
480.963
333.292
356.727
103.373
69.6048
66.6782
256.219
109.432
96.9382
291.641
63.2864
748.456
91.1778
188.226
496.288
47.0284
384.786
439.248
433.914
71.3712
770.876
202.483
107.359
123.804
71.849
160.732
513.467
115.751
247.236
360.754
288.791
196.738
318.733
142.639
305.364
431.491
544.637
73.7659
489.238
820.546
64.3174
274.986
69.1623
262.345
104.298
226.627
131.665
89.9483
173.648
50.0157
260.666
148.293
82.8189
350.796
673.386
542.875
427.004
166.781
153.403
333.959
139.902
153.526
268.782
140.354
250.601
60.6587
69.9448
205.943
111.655
508.476
472.907
211.322
147.669
46.8243
208.114
138.585
297.013
49.8487
83.0567
338.954
663.127
372.309
341.12
184.314
174.481
213.674
78.3799
60.6441
61.0178
601.365
151.459
99.5775
428.37
46.145
133.48
53.2906
916.1
199.482
331.584
165.706
253.03
240.97
213.039
827.347
792.026
471.832
646.214
793.491
85.0204
695.437
165.178
172.897
221.066
385.387
592.87
49.685
116.416
74.5599
66.0528
180.507
53.7049
59.341
44.7853
762.235
641.208
669.565
320.234
449.255
89.4243
87.6139
446.261
90.9897
73.807
149.849
83.845
549.328
82.6677
52.706
118.736
133.512
89.4423
399.214
44.7588
46.3323
45.2798
46.6315
218.051
373.009
512.827
89.2379
160.316
515.893
162.82
49.2238
112.245
61.7624
50.8577
510.401
566.702
524
113.565
115.851
547.682
207.462
51.846
417.072
503.144
369.089
90.1326
761.551
404.646
84.2547
159.165
332.517
437.619
540.466
381.29
394.182
628.655
99.4193
258.449
198.21
102.502
394.331
524.949
335.12
341.319
349.956
379.071
49.8994
51.5174
331.897
143.718
212.949
48.2684
103.099
182.792
135.009
263.827
346.52
486.701
129.299
403.005
527.282
1287.3
60.8901
48.3231
45.5799
640.96
493.046
135.293
375.504
439.558
90.5649
487.256
296.725
368.643
116.388
49.537
359.942
182.317
45.8962
135.87
366.486
133.714
156.747
232.938
486.664
375.566
731.294
145.65
148.516
89.917
418.446
248.867
80.5344
76.3844
114.067
233.875
156.812
512.496
139.106
642.576
645.08
568.714
298.072
495.778
156.977
92.7063
96.1494
412.245
324.756
119.853
188.563
142.483
126.41
90.5269
600.41
593.975
247.938
159.438
190.542
153.804
287.615
124.647
188.483
409.489
283.365
139.864
173.407
74.5143
527.252
560.534
100.217
70.7193
107.394
310.653
232.034
179.736
199.465
594.505
585.459
491.947
570.107
193.672
46.9404
290.523
163.166
439.726
163.626
361.885
114.324
83.7648
508.855
221.693
120.847
409.014
302.563
564.011
222.674
116.859
121.515
147.306
138.235
171.958
96.23
119.37
73.2054
97.6769
56.5141
37.0064
218.676
410.125
438.923
282.34
239.625
58.7188
429.181
439.173
1191.15
120.469
145.483
154.305
131.159
122.002
69.5792
146.644
134.428
56.9493
67.4479
407.814
117.021
121.275
380.585
334.145
331.52
147.746
67.2857
79.9117
88.5143
131.438
210.726
79.4606
436.86
299.097
101.524
89.346
263.785
283.763
193.679
133.066
295.933
245.451
407.3
50.7035
421.658
378.449
81.4722
130.434
235.829
78.096
147.501
120.797
380.493
155.789
114.906
46.149
82.4973
109.987
113.621
110.409
92.179
77.0855
70.8512
87.5937
106.338
352.941
311.653
70.4921
81.051
164.659
72.5202
82.1665
114.365
466.498
76.452
63.1965
69.5736
151.381
81.5216
97.8693
99.989
92.5833
204.278
205.237
301.864
301.41
334.284
385.016
67.3014
77.4768
122.736
24.8049
42.9838
41.3606
24.5445
71.5933
88.4479
48.2945
89.442
60.2473
165.13
31.1628
45.5099
17.8089
68.8996
33.0141
24.1426
19.7326
23.6422
39.1491
180.24
38.0202
159.961
131.738
276.913
277.951
99.5936
155.276
179.643
35.1411
34.5383
10.261
328.761
57.1628
67.9541
55.8174
283.571
8.72662
66.9178
94.3659
108.989
140.49
334.969
86.925
111.68
44.2098
79.6002
40.0496
38.2407
38.3552
94.3244
64.7022
46.6821
87.0711
43.9865
297.148
274.575
47.5865
70.3069
62.9536
17.8036
247.619
209.46
190.156
206.967
149.965
11.142
34.9863
37.2997
41.3838
11.9481
53.8799
155.142
250.862
74.4577
65.8035
121.034
65.4408
127.505
253.357
235.867
15.8625
70.15
59.6434
113.305
175.632
72.1559
175.823
89.5833
101.451
60.3669
29.2834
59.3595
135.464
227.339
37.5929
50.9324
13.5809
32.6575
112.472
101.001
134.45
144.973
38.4198
172.866
45.5934
50.2761
41.8452
53.5609
52.7038
43.5877
92.6828
88.4187
200.348
26.3035
68.4411
185.577
135.587
154.342
34.8316
107.695
115.711
50.0721
32.9089
66.8029
159.576
198.244
88.907
67.3707
161.231
181.186
342.505
10.6563
146.935
137.338
65.1705
98.7661
78.2412
167.774
29.4588
48.9683
39.8721
16.627
108.34
42.2425
130.577
128.861
232.444
53.5273
122.58
49.6078
98.2151
50.7439
71.5481
150.22
125.105
119.264
108.56
53.4334
64.6834
240.373
200.911
152.225
87.1696
31.5021
119.515
21.2999
54.3971
65.9108
48.3112
143.663
33.3065
79.5647
75.2568
192.845
213.984
108.519
15.9733
174.13
57.9752
11.6324
9.42072
374.869
35.3305
25.8098
10.5586
252.797
147.375
48.7857
287.576
27.1182
196.831
44.8952
186.838
226.583
233.173
148.608
143.98
35.4814
17.1493
271.531
259.484
132.717
127.804
140.36
138.175
362.115
234.79
29.1672
9.38124
168.223
195.759
197.291
126.943
214.608
184.18
38.2755
34.2714
60.7787
61.921
70.4907
222.852
138.52
115.258
229.812
204.142
197.496
135.301
12.115
173.761
9.65127
136.895
115.096
279.209
152.306
27.8151
140.242
151.714
213.147
39.9016
10.9607
10.1423
70.956
80.307
72.5295
84.3742
40.5239
120.356
67.9494
56.0668
60.1396
176.517
37.6676
65.7372
318.689
174.632
97.8395
46.7478
128.795
163.895
79.8682
8.73211
28.5821
79.1895
122.276
28.0308
168.056
74.3518
193.012
130.064
83.888
79.4736
75.2336
213.589
51.5941
30.8297
95.2305
49.7289
295.01
303.716
189.381
29.0145
52.8484
61.1222
81.4287
173.478
226.115
140.813
123.308
79.0571
102.006
9.68757
43.2199
58.2427
301.097
184.544
241.285
187.173
104.719
92.7348
38.0127
118.357
134.087
85.2805
33.2623
24.8224
22.7204
38.4248
38.3072
105.759
188.6
177.795
25.166
269.382
149.536
43.1979
303.127
54.5557
61.8804
133.352
145.211
10.6873
164.513
156.376
174.027
32.4273
132.038
185.629
160.359
107.284
232.111
136.526
207.052
124.986
266.177
130.746
156.044
21.8237
79.9186
26.6742
80.5746
186.027
210.665
45.9055
258.839
89.4791
276.078
30.6119
68.9077
63.438
19.2828
73.8318
309.215
256.833
53.5034
269.15
62.9218
10.1645
61.5879
98.0508
33.8959
10.0804
102.126
97.9531
96.8262
306.999
10.7233
41.2376
46.9684
17.9008
32.5864
42.1492
167.884
56.9244
70.9082
74.0491
30.6202
357.68
21.897
8.69234
91.8398
155.674
51.2614
145.557
77.9849
90.9333
89.8272
102.795
41.8569
71.5224
91.6845
285.271
283.826
271.286
266.37
58.6036
77.4939
159.91
92.1012
72.344
170.781
173.426
47.8976
38.1403
58.8519
105.33
49.2159
36.4338
10.8148
20.8525
127.422
290.853
198.347
163.224
70.8041
52.7447
83.6038
121.975
10.629
169.805
118.898
121.138
44.2216
138.488
210.275
143.311
222.367
248.886
115.461
67.9216
181.22
98.3057
111.945
112.797
333.199
41.674
61.918
52.8054
81.4531
41.2379
35.3671
36.3417
192.43
10.9445
60.8218
36.4738
85.8813
244.741
303.948
75.0195
77.3773
82.5082
106.257
156.311
159.587
33.8541
66.9088
117.424
84.4448
103.73
150.114
92.2261
65.0505
79.863
182.911
112.77
14.1822
34.5836
51.0071
69.7926
169.348
74.187
32.526
94.4849
124.456
20.1277
46.1119
13.9107
13.3069
19.9637
54.7906
73.4873
72.4591
154.937
91.9205
133.43
131.95
128.291
299.059
61.7699
299.291
195.637
13.1755
13.3342
192.404
96.6553
93.029
30.8617
178.269
82.7814
308.661
270.058
76.5497
11.4576
54.9459
139.771
93.4373
122.517
124.283
143.33
102.115
39.3087
49.3277
112.463
159.661
29.6786
30.8679
60.1937
146.519
44.2571
44.0652
181.256
112.233
97.2546
49.8917
213.523
78.4168
110.883
56.959
17.9967
28.5457
75.6459
77.4026
125.727
117.629
159.495
33.7294
12.059
10.6269
48.6175
47.9861
45.4744
116.161
144
134.404
46.8061
22.6195
120.654
111.281
139.71
319.246
52.1932
92.6219
312.864
12.7484
485.778
101.737
60.4028
28.1489
12.71
13.0413
64.4196
72.347
139.758
42.6592
131.802
55.4715
66.1928
107.667
54.7128
57.4201
47.1534
175.764
44.1657
114.071
153.16
117.499
220.986
221.676
72.6794
184.84
63.9718
16.4134
143.184
12.6091
143.584
71.4203
65.354
156.72
52.3572
68.5813
145.981
175.909
301.352
283.295
264.666
122.154
51.8063
178.985
136.375
165.933
12.0813
15.8945
139.837
203.171
179.232
41.5025
64.5261
51.7803
13.1034
12.3489
233.259
70.4144
22.1315
23.602
157.962
12.2127
150.667
33.1505
54.1049
16.6375
24.9148
334.177
116.73
134.229
180.002
100.578
288.178
89.1704
145.827
67.1479
40.6286
59.497
76.4155
65.4899
10.96
90.1851
153.372
142.222
49.93
12.0913
121.221
19.7941
47.0005
42.1849
10.8182
35.9509
55.9154
49.8886
281.408
261.568
174.998
104.474
223.521
141.816
56.6615
227.77
68.4682
60.6115
130.313
104.188
118.13
102.754
62.0504
58.3154
64.5519
60.8885
59.6468
22.6182
56.4763
49.2671
158.652
61.4873
182.851
115.771
41.1528
49.5989
79.9522
64.0755
123.567
121.278
116.987
65.1411
52.8841
14.174
13.2451
56.3361
10.3111
61.2602
111.004
26.7107
40.2768
52.8176
142.503
59.6271
53.4474
70.7732
162.545
70.5072
171.928
122.663
211.556
184.046
150.676
89.4764
36.3863
46.7601
35.3147
31.9276
92.7354
41.0251
40.233
196.022
109.584
34.9321
39.9982
239.382
136.091
47.6147
155.539
13.4756
135.863
113.313
45.1934
79.3578
143.248
137.329
133.804
169.929
13.6909
81.2994
67.0653
220.847
324.071
149.351
24.3807
146.956
144.821
133.571
195.861
125.29
46.029
49.7262
197.21
137.883
31.0952
41.7784
84.5799
12.0292
259.411
195.897
197.381
13.8792
158.452
365.331
116.213
45.4374
129.386
177.716
112.662
239.359
11.2485
173.42
10.7194
107.884
85.1634
47.7025
34.0785
55.7502
120.831
113.285
58.4954
228.819
141.696
282.907
54.198
51.6193
10.4759
18.8033
42.3042
9.75155
99.4888
10.9193
286.41
170.385
28.2386
108.288
122.372
71.6257
56.3468
29.4396
172.192
175.188
50.7609
51.3281
248.922
155.589
12.605
13.6601
60.1214
57.1268
109.158
36.3994
9.58052
34.4347
31.995
61.7461
10.175
15.2522
41.3448
14.5316
8.98463
71.3462
122.337
60.9857
58.5568
242.151
91.7059
148.405
74.8472
286.684
162.565
120.215
106.657
144.22
137.051
118.196
204.664
12.0163
26.9867
25.148
58.495
44.1602
59.248
61.3356
97.4117
138.682
23.5168
26.3106
119.609
32.5856
137.606
14.8129
14.266
76.8196
116.983
111.03
62.1867
270.329
60.6665
98.3025
58.9897
109.294
192.699
292.972
96.1151
59.9268
57.7873
89.1202
82.6957
101.256
110.505
38.3951
89.4519
86.0343
217.487
13.4884
71.8099
70.9458
120.661
19.885
98.9659
51.243
41.8236
38.0335
53.8326
62.3992
46.2678
44.525
160.715
57.9863
176.171
129.869
37.9658
158.371
172.699
34.1691
131.594
60.2546
130.847
27.7086
31.8844
106.697
32.3972
42.042
45.2446
45.8174
20.0127
63.9415
62.3779
225.174
255.134
45.54
21.302
339.458
46.8762
30.2241
148.539
162.281
270.161
53.692
28.5877
78.6936
144.949
185.72
94.9154
88.3583
123.945
167.051
62.7228
74.018
53.6058
74.2776
63.5119
90.9317
78.0232
113.939
51.9346
150.592
23.6538
27.088
197.646
48.4873
120.78
98.914
21.8279
88.1766
9.84274
15.7704
19.4598
317.374
14.5565
247.19
110.779
17.423
178.102
30.6067
47.5526
160.125
16.3808
12.2751
34.3333
246.523
326.246
245.365
58.0519
209.149
231.138
48.2684
102.008
198.063
119.949
40.4987
9.06236
40.9649
98.9116
103.254
10.724
47.9579
70.6018
73.6976
206.857
151.497
125.177
334.519
176.931
41.7222
55.9164
10.7806
180.296
78.9904
72.4184
249.857
55.9397
88.2824
147.557
86.6266
9.65074
198.087
88.6816
43.6597
35.5626
32.3064
96.0446
88.0479
49.2498
16.7138
139.109
145.687
50.2247
159.109
22.8029
18.4206
21.1731
39.3754
248.216
19.1014
55.3754
37.8622
252.609
212.353
149.272
79.9866
47.4954
48.04
88.438
97.3197
12.562
321.639
35.6411
95.185
249.96
231.793
77.9819
97.7772
56.9378
96.9694
53.9728
14.5854
122.102
44.6295
12.0504
122.115
159.139
118.708
56.9994
124.803
42.7827
98.7661
39.6645
40.6915
177.158
197.119
60.6655
68.3181
12.0329
12.0862
77.6439
143.853
247.023
12.1584
11.9861
212.393
171.571
253.521
67.011
18.0652
158.715
62.188
255.652
271.723
112.021
24.6558
9.71112
49.0269
318.905
281.738
56.8418
73.3531
65.6359
128.512
41.9996
30.4841
117.527
47.6165
329.658
73.5559
65.9103
79.4726
129.118
41.2405
79.9106
101.489
122.202
48.013
122.163
256.114
10.0585
74.9941
44.9195
33.4314
170.4
55.3024
34.8872
230.286
10.6357
491.808
317.752
72.738
60.506
207.458
83.837
214.975
256.248
9.8516
163.838
10.8646
10.7011
162.127
117.472
117.147
51.3343
103.763
153.063
61.2386
47.8997
71.4871
318.234
43.3864
10.3736
11.3004
47.3578
21.0479
24.0889
171.858
73.8399
142.477
160.533
31.8839
27.314
50.247
131.397
130.13
287.403
246.869
95.8291
129.962
17.3959
153.054
201.993
255.471
221.219
240.628
10.3675
67.9651
12.3633
177.447
182.137
137.751
126.394
103.614
96.1626
42.931
48.6763
292.055
73.7864
74.5226
135.737
62.0099
11.879
9.07531
136.17
143.823
68.133
75.4054
136.872
94.538
65.7888
172.095
100.563
53.6467
26.296
78.9537
205.932
49.4726
54.4355
162.371
145.759
28.9678
289.007
94.8697
147.78
178.311
48.6085
150.46
169.332
254.162
52.4442
73.0396
53.3742
165.359
42.836
25.2295
97.1314
274.9
282.168
135.275
115.94
186.643
69.3193
143.865
186.026
211.386
54.9587
87.4194
76.7491
116.129
126.019
191.432
164.272
122.511
30.2307
147.893
129.331
16.9297
155.125
9.78168
44.0352
34.6064
168.19
76.8142
66.1351
39.6539
227.348
112.617
126.261
34.5185
50.0528
64.8242
67.5436
68.5676
154.71
51.2386
93.4825
46.2544
9.68675
9.4971
16.0509
132.832
130.176
112.599
128.619
156.065
12.8836
38.3627
56.7887
125.78
117.282
71.5104
50.916
46.1124
41.4357
86.5721
50.1708
75.9024
99.0634
89.5364
95.2494
137.727
72.7206
73.5566
88.3224
13.9837
51.7031
154.173
145.918
36.6379
40.5482
33.8644
296.784
72.9815
28.2471
263.477
333.344
178.745
70.5589
65.3754
154.018
72.2936
63.0561
97.0721
247.106
67.2336
46.7953
137.546
121.639
72.4795
33.6719
90.1922
10.8921
178.529
67.0875
59.6193
65.2676
78.9947
121.567
82.9287
94.1039
196.328
150.023
37.7785
184.262
67.6521
90.3685
84.689
9.97744
62.3209
171.213
119.607
13.4659
125.925
63.9353
79.6682
35.494
41.8233
30.7962
35.3313
46.175
190.27
56.4013
79.5711
29.0888
20.4743
28.3329
141.481
111.087
181.487
141.972
46.8454
76.596
56.2675
121.938
41.1307
72.1282
53.6996
176.173
169.202
139.874
90.7493
129.824
96.7707
136.095
295.154
67.5164
38.0287
160.841
199.648
54.1629
71.9011
94.4754
81.3046
59.4156
144.852
21.6056
44.9767
41.4735
59.9693
152.361
19.3076
413.26
142.882
90.877
138.185
260.185
67.5276
109.559
42.6627
115.57
121.151
89.6306
124.097
105.14
266.722
58.8157
68.3918
99.6731
82.6729
214.431
131.061
224.788
91.8972
13.7604
75.1613
257.492
75.3269
47.1686
99.2525
90.7503
359.805
78.4196
90.7728
147.432
38.0354
66.1499
57.7778
112.438
39.2784
154.811
46.6678
24.794
76.4798
13.5887
28.7458
113.145
158.359
251.817
280.334
47.1877
17.8441
17.8847
18.6054
163.103
41.9233
116.272
52.1792
78.0321
89.2532
147.683
147.211
135.065
403.177
48.7948
46.8656
413.609
142.385
255.369
51.7417
293.83
71.0964
149.028
383.811
201.657
69.4053
349.674
415.182
107.909
104.983
83.9601
139.048
176.809
384.905
306.748
305.992
246.453
351.592
347.697
285.661
129.812
145.336
24.5982
16.8889
68.7447
11.4253
109.132
88.6949
98.9231
15.7484
67.6702
303.737
298.368
8.83115
9.23031
62.5977
210.109
226.517
194.411
139.719
16.4663
30.8452
9.42434
42.9404
63.9336
169.623
34.3775
87.4441
272.537
78.1325
45.3668
42.864
175.293
66.8363
57.1317
39.2344
36.199
243.055
19.7897
209.438
39.3217
124.22
132.049
62.1955
54.7585
142.256
51.7966
11.7939
256.146
40.2253
47.7566
93.0933
141.106
34.9593
209.876
112.867
171.588
211.662
94.8794
69.6512
156.379