/*--------------------------------*- C++ -*----------------------------------*\
| =========                 |                                                 |
| \\      /  F ield         | OpenFOAM: The Open Source CFD Toolbox           |
|  \\    /   O peration     | Version:  2212                                  |
|   \\  /    A nd           | Website:  www.openfoam.com                      |
|    \\/     M anipulation  |                                                 |
\*---------------------------------------------------------------------------*/
FoamFile
{
    version     2.0;
    format      ascii;
    arch        "LSB;label=32;scalar=64";
    class       volScalarField;
    location    "10";
    object      k;
}
// * * * * * * * * * * * * * * * * * * * * * * * * * * * * * * * * * * * * * //

dimensions      [0 2 -2 0 0 0 0];

internalField   nonuniform List<scalar> 
76335
(
2.16608
0.834069
0.834883
0.942032
0.982333
1.58159
1.93914
1.21998
1.31322
1.35135
2.58853
0.703997
0.801743
0.906705
1.33153
0.909968
0.805909
0.965042
0.789597
1.03301
2.66284
0.900126
2.22813
2.26169
2.70313
2.76447
2.2304
2.52805
2.49759
0.86724
1.03949
0.84583
2.67488
1.42278
1.50127
1.39223
2.93516
0.736639
1.4532
1.7048
1.80889
2.1912
3.85015
1.82793
1.86326
1.28961
1.44616
1.20045
1.07953
1.06576
1.4607
1.61149
1.10986
1.01062
0.798692
2.4206
2.74507
1.15269
1.53927
1.49801
0.964981
3.20868
3.13393
2.82573
2.6712
2.4399
0.846249
0.956562
1.04836
0.868688
0.666489
1.11
2.35034
2.74311
1.33807
1.52381
2.27476
1.40741
2.33203
2.61837
3.0099
0.902162
1.43498
1.3636
1.93385
2.70364
1.35422
2.91217
1.73499
1.76484
0.996382
0.900056
1.19309
2.40574
2.88767
1.05532
1.14633
0.683021
0.955251
1.7481
2.1213
2.04672
2.01827
1.10241
2.64376
0.723383
1.15607
1.06877
1.13195
1.19913
1.08849
1.70668
1.40722
2.53765
0.866729
1.48732
2.57035
2.09653
2.1476
0.947111
2.08233
1.91034
1.20727
0.872404
1.45775
2.29642
2.35055
1.54267
1.39656
2.2276
2.29524
3.79843
0.823919
2.02526
1.92908
1.5315
1.68204
1.43403
2.54946
1.04045
0.93806
0.984535
0.793999
2.09587
1.07597
2.05571
2.19157
2.87509
1.30178
1.91347
1.28758
2.02445
1.01811
1.42495
1.83396
1.76976
1.73899
1.53772
1.34725
1.43476
2.63706
2.63583
1.89952
1.65265
0.976638
1.96449
1.00251
1.71553
1.60704
1.19358
1.87051
1.07775
1.66637
1.3939
2.75903
2.33705
1.79452
0.799134
1.96825
1.34265
0.727252
0.777953
3.14537
0.99229
1.0206
0.885577
3.16283
2.24187
1.23156
3.32169
0.959522
2.3778
1.17379
1.99265
3.07188
2.96112
2.3628
2.30297
0.778438
0.871478
2.93326
2.86247
2.1612
1.81027
2.05705
1.94163
2.22719
1.55121
1.10516
0.775604
2.30489
3.00213
3.07061
1.43773
2.37098
1.95346
0.979465
0.930085
1.03139
1.03437
1.36305
2.29756
2.28801
2.11556
2.15869
2.32303
2.5984
2.45959
0.727522
2.17504
0.692164
2.18874
2.15337
2.81131
1.37717
1.13467
2.71668
2.23422
2.49163
1.08415
0.864929
0.828638
1.5168
1.28431
1.15115
1.93873
1.3292
1.73742
1.26312
1.50412
1.42292
2.26163
0.774993
1.32814
2.16373
2.30958
1.83579
0.836239
1.32397
2.33541
1.38362
0.747076
0.929924
1.72512
1.80426
0.899291
2.109
1.83987
2.24109
2.21694
1.72116
1.62003
1.66507
2.17829
1.23018
0.94329
1.70649
1.14177
2.44266
2.67065
2.54648
0.835013
1.21194
1.27968
1.59374
1.93942
2.22221
1.49572
2.09943
2.26517
2.05868
0.696948
1.23359
1.27916
3.10175
2.8149
2.8322
2.34041
2.04253
1.78944
0.971509
1.91402
1.31991
1.09224
0.927477
0.962612
0.949245
0.976796
0.824044
1.77216
2.65225
1.9309
1.03815
3.36727
1.12371
0.909034
3.67876
1.18194
1.24346
2.56549
2.46488
0.808826
2.34334
2.37931
2.7797
0.910294
1.88463
2.47889
1.33625
2.34654
2.28372
2.27372
2.71532
1.95799
2.98377
2.1626
2.37093
0.905984
1.8212
1.04596
2.22939
2.52235
2.15542
1.19082
2.99083
1.75984
3.20141
1.08369
1.4418
1.10981
0.970259
1.67764
3.10366
3.11981
1.13624
2.90589
1.53033
0.786848
1.29908
2.1931
1.02726
0.675397
1.52338
1.48968
1.37425
2.94622
0.83641
1.26739
1.26152
0.827054
0.936383
0.971018
2.84783
1.47549
1.47227
1.27452
1.12941
3.75067
0.679676
0.715941
1.23075
2.72045
1.11
2.56455
2.00854
1.71575
1.754
1.63878
0.791396
1.35439
1.5693
2.93747
3.08359
3.24968
3.64405
1.25817
1.3487
2.30138
1.53613
1.15826
2.63531
2.81986
1.26519
1.19522
1.1803
1.42009
1.09254
0.966882
0.806219
0.849019
1.33838
3.52698
3.00064
2.76992
1.21763
1.01788
1.53967
2.21433
0.679083
2.19114
2.30762
2.25948
1.0525
2.41829
3.15968
2.16277
2.71965
2.01017
1.05858
1.71364
1.82664
1.96926
2.04484
1.72913
2.81236
1.2366
1.10886
1.06959
1.57733
0.868251
1.0676
1.14967
2.48281
0.864277
1.32268
0.950809
1.68785
1.53647
2.58017
1.51738
1.47316
1.24541
1.86511
2.41759
2.42672
0.954281
1.48145
0.893963
1.61613
1.2774
1.95935
1.00309
1.34293
1.49318
2.22627
1.92312
0.673663
1.0416
1.1453
1.82638
2.7314
1.25431
0.946046
1.3425
2.13116
1.05271
1.20594
0.677013
0.669722
0.971868
1.02622
1.30911
1.48586
2.67734
1.27511
2.2705
1.84904
1.86713
2.86288
1.27765
2.82002
2.29212
0.667948
0.670367
2.4253
1.72192
1.4217
1.05173
1.75134
1.62688
2.63044
2.68491
1.45938
0.830005
1.59862
2.03175
1.79309
1.99702
2.19984
1.99045
1.69703
1.04267
1.17811
1.38934
1.73196
0.810872
0.847305
1.25573
1.90159
0.844892
1.35812
2.46485
1.99347
1.20279
1.06452
2.80902
1.35731
1.85922
1.0163
0.726093
1.00349
0.993203
1.30135
1.63869
2.19816
2.44597
1.01246
0.852865
0.838587
0.960569
1.04315
1.0911
1.61787
2.31016
2.25237
1.03413
1.01304
2.12712
2.15105
1.94989
3.11701
1.22145
1.43908
3.57001
0.704122
4.09625
1.98348
1.31366
1.07308
0.661997
0.661783
1.07441
1.63389
2.34939
1.02223
2.27196
1.1117
1.70659
1.88797
1.19507
1.47121
0.95693
2.46498
1.12735
1.94937
2.28591
2.25165
2.57256
2.36561
1.21174
2.66049
1.24032
0.877694
2.45935
0.746301
2.31751
1.27811
1.28505
1.65374
1.07497
1.4392
2.62319
2.6564
2.42257
3.17901
3.2515
2.24005
0.973384
2.49288
1.93169
2.11666
0.806148
0.968031
2.63471
2.36609
1.94352
1.08683
1.36667
1.18398
0.678016
0.679717
2.40266
1.33432
0.789263
0.819992
1.35849
0.811529
2.91345
0.905991
1.14333
0.952004
0.836443
4.38612
1.77198
2.15129
2.6082
1.88058
3.21664
1.41298
2.21735
1.41344
0.923243
1.27678
1.52787
1.50485
0.68441
1.04556
1.86633
1.69232
1.07634
0.883008
1.91375
0.740403
1.21516
0.951487
0.827553
0.996489
1.52513
1.2046
2.36457
2.55345
1.76777
1.65404
2.61948
2.46146
1.36464
2.19426
1.21946
1.27208
2.27126
1.70155
2.18651
1.8903
1.42759
1.29657
1.5423
1.24961
1.23286
0.942973
1.33355
1.28262
1.66104
1.28136
2.63531
2.07454
1.23851
1.00858
1.63819
1.20791
2.04112
2.19304
2.28306
1.67943
1.2089
0.687257
0.681297
1.31321
0.875637
1.14571
1.92711
0.88192
1.04824
1.24118
2.00783
1.33597
1.28801
1.37952
1.45853
1.02069
2.5562
1.95736
2.91357
2.95254
2.34426
1.33919
1.00055
1.141
1.2175
1.1244
2.19962
1.10127
1.12927
1.97536
2.13965
0.895651
0.911516
2.00335
2.38089
0.920946
2.28475
0.917038
2.15463
1.96281
1.18785
1.25024
2.09557
2.31808
2.20622
1.7667
0.88392
1.23501
1.52127
2.23875
2.51684
2.27483
0.976959
1.76914
2.25627
1.6306
1.74062
1.28558
1.04378
1.07408
2.66592
1.84301
0.935504
1.17674
1.95287
0.672958
3.47889
2.30646
2.37776
0.690678
2.3403
3.0942
2.04882
1.13266
2.00432
2.44515
1.90756
2.20238
0.898275
2.40598
0.855735
1.33794
1.19511
1.40475
1.01231
1.25853
1.87275
1.83206
1.40018
2.29176
2.10853
3.17538
1.12092
1.11005
0.827646
0.954518
1.0594
0.700942
1.50171
0.863834
3.6073
2.18068
0.919522
1.62717
2.0592
1.52813
1.3408
1.30539
2.39462
1.98927
1.14443
1.11032
2.9235
2.09469
0.659592
0.694907
1.28943
1.00298
1.98403
0.685309
0.787671
0.985186
0.973299
1.46812
0.868447
0.941372
1.07744
0.657791
0.752433
1.49115
2.27278
1.35459
1.13091
1.95481
1.40357
2.4666
1.49585
3.41594
2.11296
2.20736
1.68121
2.34579
2.37179
2.1628
3.13632
0.861009
0.792554
0.87874
1.19494
0.745557
1.37752
1.50204
1.88225
1.84721
0.829453
0.885957
1.84351
0.941524
1.71133
0.855779
0.835588
1.60366
1.90206
2.00357
1.4016
3.43218
1.29194
1.67384
1.3291
2.07333
2.77282
3.38553
1.2236
1.40518
1.29845
1.26791
1.69344
1.45712
2.06214
0.977067
1.64853
0.751547
2.33633
0.674395
1.01936
1.06555
2.04525
0.811416
1.56048
1.09244
1.05285
1.07042
1.17443
1.27891
1.004
0.974076
2.04662
1.0562
2.46084
1.80358
0.944864
1.82204
2.16739
1.12685
2.04222
1.272
1.75312
0.891043
0.965148
1.86289
1.06865
0.891457
0.989441
0.982535
0.900484
1.01826
0.872504
2.79504
2.76113
1.12321
1.0065
4.15538
1.16182
1.00655
1.84757
2.07984
3.0378
1.10018
0.85425
0.885222
2.34604
2.41173
1.80828
1.7723
1.37913
1.39981
1.25782
1.29195
1.29039
1.61519
1.27811
1.7652
1.27882
2.23052
1.02289
2.03457
0.865024
1.01905
3.02738
1.03191
1.91606
1.70496
1.0036
1.61703
0.859507
0.671796
0.689756
3.23565
0.692307
3.45374
1.27477
0.99139
2.70538
0.964414
0.917985
1.92363
0.92836
0.893488
1.25969
2.62824
3.22125
2.60044
1.11523
2.38599
2.56877
1.2524
1.91312
3.10775
2.14605
1.1201
0.721
1.14564
1.77421
1.5889
0.781669
0.588136
1.81311
1.45139
3.14021
1.87756
2.37199
3.34235
2.79891
0.87044
1.29556
0.76615
0.921892
1.24106
1.33207
2.43177
1.25208
1.41964
2.47306
1.60086
0.687692
2.73878
1.77331
1.00023
0.972819
0.954901
1.14158
1.1779
1.01053
0.867253
2.18436
1.98415
0.798742
2.30753
0.706543
0.671988
1.02595
0.828815
2.39773
0.761702
1.27486
1.19086
2.905
1.99691
2.24663
1.51792
1.14019
1.16424
1.42583
1.45929
0.672898
3.80977
0.778981
1.84646
3.15561
2.96908
0.88006
1.79062
0.942061
1.6146
1.24987
0.681531
2.21248
1.22143
0.678108
2.3134
1.88055
1.69605
1.1004
2.09335
0.985258
1.24025
0.991524
0.988375
2.35339
1.99855
1.37126
1.33287
0.879623
0.852367
1.41654
2.29052
2.79391
0.676926
0.67685
2.67027
2.76302
2.85398
1.25624
0.909993
1.92206
1.45482
3.14146
2.86263
1.93068
0.977534
0.682859
1.00934
2.50589
2.34491
1.44654
1.66368
1.05634
1.93862
1.04609
1.10889
2.09179
0.760501
3.29925
0.964105
1.39057
1.65878
1.80599
1.22314
1.71305
1.62285
2.37214
1.37475
2.45515
1.96156
0.858687
1.79574
0.98085
0.798124
2.70163
1.08229
0.843082
3.23538
0.851776
3.84011
3.53303
1.32315
1.4098
2.27954
1.41009
2.54942
2.45958
0.850592
2.41629
0.704724
0.719073
2.29662
2.32576
2.05786
1.2154
2.17632
1.31676
1.21579
0.72475
1.45338
2.47039
1.07366
0.692429
0.685338
1.11547
1.00932
1.00892
2.41556
1.38686
3.18458
2.47459
1.12575
0.960546
0.961275
2.06855
2.04692
2.50705
2.639
1.43381
2.35022
0.897611
2.26787
2.14091
3.28648
3.13743
3.50754
0.870196
1.39324
0.673776
2.6325
2.58836
2.06286
2.10916
1.81047
1.69775
1.23495
1.31732
3.3629
1.14394
1.38303
1.94363
1.56208
0.676256
0.753958
2.33093
1.97918
1.46395
1.40141
2.14116
0.728711
1.08313
2.31734
2.26035
1.06627
0.705211
1.69284
2.39306
1.30161
1.12394
2.77756
2.59299
0.790223
2.54691
1.62045
1.60285
2.34678
1.12701
1.95469
2.49592
1.67025
0.945169
1.34274
0.953327
2.23788
0.932051
0.748637
2.2193
3.51783
3.57786
1.9155
1.85974
2.75221
1.39328
2.0055
2.72059
2.3127
1.15309
1.37839
1.54855
2.2018
1.67311
2.94007
2.58182
2.22497
0.913952
1.79793
2.23468
0.65504
1.77917
0.862536
0.943137
0.82976
2.48794
1.19253
1.22472
0.920466
2.60562
2.63513
2.30789
0.774973
1.31355
1.51604
1.49712
1.41704
2.83574
0.714745
1.50869
1.00643
0.671526
0.675452
0.686969
2.38327
2.47411
1.59961
1.42831
1.85699
0.672562
1.32716
1.38086
1.94971
2.0511
1.29967
1.23514
1.0273
1.0091
1.81216
1.01117
1.73966
1.50431
1.86154
1.61646
2.14503
1.10058
1.47432
1.26717
0.884707
1.32548
2.28257
2.24365
0.982382
1.11032
1.01013
3.9279
1.22496
0.884919
2.60581
3.20911
2.42681
1.32367
1.25147
2.24605
1.60095
1.53065
2.24761
2.48317
1.29161
1.27765
2.12306
1.56108
1.44908
0.927919
1.50082
0.872466
2.30367
1.47515
1.38076
1.50415
1.56642
2.11075
1.59108
1.69181
2.50561
2.18045
0.681238
2.08322
1.42546
1.07734
1.13662
0.871622
0.917786
2.21067
1.96673
0.669015
1.52858
1.12749
1.08563
0.926731
0.85349
1.20126
1.20589
1.10377
2.50542
1.3149
1.31489
0.804855
0.909165
0.816063
2.14323
1.89759
2.68778
2.25381
1.22737
1.57532
0.929009
2.19013
1.30708
1.47602
1.24039
2.69975
2.52055
2.46783
1.75172
2.76668
1.78517
2.24299
3.34803
1.39557
0.95578
2.02501
2.26249
1.33501
1.13116
1.61492
1.23242
1.26587
2.3524
0.826677
1.06105
0.945907
1.38717
2.19541
0.851803
4.25056
2.11816
1.58939
1.48166
3.11754
1.33168
1.85256
1.29702
2.02319
2.11427
0.616338
2.12424
1.86641
3.16924
1.13955
1.24395
1.73595
1.32152
2.50503
2.36335
2.45233
1.50906
0.874372
0.842396
2.45253
1.35379
1.34831
1.15114
1.10246
1.91046
1.24728
1.80087
2.02556
0.485949
1.44686
1.3359
1.01839
1.19119
2.20607
1.27331
0.923915
1.31041
0.912565
1.0604
1.85557
2.17459
2.78941
3.14007
1.4309
0.711562
0.986256
1.02583
2.28249
1.03132
1.90127
1.3063
1.333
1.37438
2.04746
2.0453
2.10984
3.1612
1.00149
0.829298
3.8319
2.01552
1.94388
1.02892
3.70291
1.29887
2.15574
2.26552
1.65722
1.27848
3.92323
2.65771
1.97927
2.03554
1.4051
2.19307
2.5354
2.26459
2.05925
2.92747
1.99204
3.97061
3.02789
1.76991
2.19632
2.14559
0.979672
0.945749
1.17612
0.673872
0.916911
1.60053
1.30927
0.892539
1.08964
2.46628
2.61027
0.703815
0.696309
1.41128
2.52692
2.63076
2.3372
2.40411
0.648108
0.83615
0.771494
0.872323
1.33801
2.70134
0.920261
1.49067
3.37272
0.867224
1.00705
0.902733
2.32371
1.00817
1.20617
0.902576
0.813849
2.3592
0.937869
2.73528
0.92979
2.03246
2.2044
1.28786
1.17377
1.80102
1.17341
0.862895
2.78226
0.910396
0.968265
1.86444
2.31135
0.826373
2.80131
1.53987
2.1913
2.19832
1.47109
1.42639
1.88137
2.66629
0.972304
1.51848
1.26153
1.12152
0.934564
2.21113
1.45866
0.962073
0.996241
1.40659
1.31532
1.69609
1.33675
2.0379
2.16268
0.746525
1.16602
1.0101
0.679689
1.02466
2.09843
0.868291
1.76662
1.73783
1.52178
1.86384
0.730058
3.42505
2.24412
3.49076
2.29107
1.39865
2.13692
1.70166
1.8194
0.669741
0.676363
0.726886
2.08823
2.41361
2.51495
2.44244
1.5387
1.34663
1.54752
1.43502
1.41806
1.46389
1.67468
1.93886
1.08497
0.694233
0.675953
1.04798
1.10511
1.73439
1.19409
2.90876
3.2039
0.963481
0.827194
0.765525
1.99402
1.53801
1.41034
2.38404
0.681653
0.947028
1.53788
0.987188
1.04916
2.30636
1.89564
1.10033
0.959635
2.08553
2.17719
1.16985
1.58146
1.66238
1.62347
1.85438
2.70296
1.92336
2.45447
2.51473
1.57784
0.983495
0.99511
2.38635
0.959521
1.90538
0.825459
1.98282
0.999982
1.32263
0.86417
0.67531
0.681152
2.04631
2.59818
1.76871
2.10639
2.10008
2.21634
2.77873
2.10872
1.07953
0.673756
2.6667
2.24692
1.60454
0.779426
1.36412
1.45932
1.02247
1.3564
1.23105
1.69328
1.00166
2.1062
1.6885
2.87605
3.07181
1.76283
1.77736
0.701114
2.16605
2.38936
2.52844
1.47268
3.95057
2.78602
2.83091
1.44902
1.46578
2.66058
2.30645
1.02393
1.26115
1.41741
1.29015
2.23242
2.50651
1.09008
1.21202
1.19932
1.79908
1.19405
2.18527
2.27968
1.1916
3.18562
2.74277
1.4814
1.14057
1.36886
2.52215
1.88652
1.10694
1.67365
1.11959
1.96337
1.1903
1.19612
1.23271
1.28233
0.925367
0.995889
2.24354
3.0178
1.84212
0.91759
2.24482
2.67558
2.99922
1.1686
0.935475
1.52189
1.52054
0.669486
2.03762
3.20345
2.15116
1.05856
2.65608
2.41207
1.02269
1.44557
1.31104
1.28439
1.69459
1.94023
0.709004
0.694779
3.54621
2.44542
2.54635
2.07055
0.969675
2.69903
1.11501
1.91238
1.66189
1.54756
1.38789
2.18895
2.00531
1.56668
1.64914
0.880131
0.70088
3.46474
2.12942
0.77164
3.13013
3.18469
1.00362
2.07335
0.751959
1.05457
1.97544
1.94155
2.38998
2.91889
1.22936
0.943605
2.89162
2.23872
1.35309
2.76408
0.92199
2.81043
3.27626
2.2888
2.49878
1.09356
1.73355
1.10852
0.6888
1.68502
1.09798
2.79857
0.784165
1.48757
2.63523
1.10854
0.975996
0.740401
1.86821
2.0197
0.866026
2.76297
1.01014
0.984375
1.83332
0.842506
1.54485
0.703191
1.66676
0.881476
1.92501
2.14984
2.48701
2.28392
2.22605
2.18142
2.12313
1.28554
2.55969
0.749691
2.51858
2.06891
2.10071
0.981472
0.917632
0.89729
1.76693
1.08453
0.920067
1.68956
0.666859
3.73777
0.879988
1.50486
2.37473
0.705046
2.17897
2.41527
2.41355
0.924208
3.39594
1.50576
1.13373
1.08916
0.88811
1.32023
2.74556
1.07776
1.56159
2.25508
1.80755
1.56277
1.97521
1.20268
2.04603
2.43624
2.80537
0.776076
2.53846
3.97018
0.873839
1.68861
0.891101
1.64564
0.981169
1.74873
1.18573
0.960597
1.49699
0.747073
1.78674
1.33941
0.79071
2.15466
2.97059
2.54426
2.30382
1.36387
1.3687
1.8778
1.04558
1.16507
1.87143
1.04977
1.48076
0.847625
0.910833
1.45942
1.13837
2.70673
2.62271
1.72129
1.43189
0.717605
1.69877
1.33546
2.07347
0.741192
0.815892
2.18564
3.0775
2.32158
1.92477
1.53003
1.24083
1.61737
0.965801
0.85762
0.86995
3.25993
1.28339
0.94804
2.70285
0.69632
1.1961
0.774764
3.79635
1.44529
2.02706
1.3711
1.48954
1.69641
1.65688
3.0555
3.15895
2.30789
2.93989
3.5184
1.01006
3.18826
1.29998
1.12529
1.65027
2.10823
2.91892
0.741978
1.21662
0.862146
0.876742
1.48377
0.787303
0.828026
0.691474
4.01917
3.26656
3.24817
2.14923
2.43858
1.07179
1.0404
2.37943
0.948469
0.817855
1.35587
0.928522
2.71816
0.821772
0.768912
1.0651
1.10061
0.891259
2.3424
0.6729
0.688282
0.679816
0.690675
1.36091
2.29834
2.72646
1.03082
1.50408
2.98111
1.29092
0.688577
1.0563
0.773077
0.751662
2.79174
2.71442
2.6924
1.08557
1.10193
2.66019
1.4564
0.75963
2.27783
2.64044
2.11271
0.91782
3.67083
2.33112
0.984607
1.3912
2.12335
2.40062
2.85331
2.19723
2.25156
3.0078
1.05487
1.79119
1.88724
1.11105
2.228
2.68897
2.04295
2.06288
2.11717
2.13223
0.739815
0.747984
1.69349
1.14931
1.55218
0.719039
1.16215
1.6362
1.31124
1.75916
2.01556
3.05458
1.26787
2.29621
2.59829
5.02918
0.760608
0.732703
0.702523
3.33672
2.54574
1.20438
2.04886
2.41314
0.914919
2.83612
1.95356
2.01917
1.0151
0.676032
2.08944
1.41193
0.674087
1.21686
2.14249
1.27077
1.17039
1.60956
2.64893
2.53866
3.11895
1.23586
1.25668
0.980516
2.32166
1.54635
0.972794
0.804604
0.990811
1.71352
1.39276
2.62352
1.29893
3.02294
3.11904
2.91465
2.03949
2.72943
1.52196
1.09979
1.12982
2.41535
1.83241
1.20932
1.39489
1.22861
1.14071
1.01243
2.95277
2.93887
1.80271
1.22697
1.4286
1.27405
1.65215
1.20106
1.4083
2.32754
1.97143
1.26628
1.39113
0.94073
3.07555
3.08438
0.96899
0.809991
0.955642
1.77361
1.59276
1.36429
1.43699
2.99872
3.11946
2.73647
2.83402
1.44715
0.695744
2.01036
1.38506
2.35212
1.48548
2.00222
1.08503
0.916649
2.65077
1.5204
1.07735
2.41713
1.90966
3.11173
1.49541
0.91564
1.19988
1.4073
1.21215
1.39024
0.865809
1.10236
0.89828
1.01676
0.709502
0.588724
1.58723
2.25799
2.3828
1.82024
1.67239
0.833489
2.33196
2.40748
4.55291
1.15984
1.33293
1.21982
1.00424
1.20951
0.901929
1.25837
1.1497
0.795279
0.712301
2.43188
1.26311
1.16668
2.53283
2.09016
2.07337
1.34696
0.716432
0.96464
0.820991
1.17686
1.45771
0.967896
2.35788
1.98909
1.05667
0.947647
1.84051
1.84649
1.39013
1.21902
2.0514
1.75618
2.06629
0.739137
2.36089
2.17926
0.890683
1.02039
1.6081
0.962764
1.21683
1.15683
2.17853
1.24536
1.17031
0.710283
0.900253
0.98686
1.05
0.991471
0.906909
0.843911
0.787906
0.946722
1.04548
2.12023
1.83868
0.734905
0.889644
1.40662
0.821928
0.897222
1.18049
2.45626
0.985121
0.866074
0.929768
1.35807
1.01276
0.884888
1.17195
0.940108
1.4389
1.33763
1.88884
1.98254
2.10879
1.84188
0.897281
0.970862
2.54261
0.951782
1.2366
1.109
1.02493
1.79229
2.54956
1.477
2.72332
1.70859
3.35797
0.897531
0.967769
0.660737
1.73996
0.891912
0.912584
0.743809
0.9216
1.55829
3.46879
1.03049
3.13365
2.83158
5.27278
5.29818
2.91169
3.52045
3.76551
1.18741
1.29891
0.428382
6.17451
1.64852
1.88977
1.54006
5.79055
0.377413
1.77774
2.05814
2.47237
2.87919
6.12845
2.27518
2.35388
1.47521
1.7319
1.23956
0.930419
0.993933
2.01571
1.86199
1.64009
2.04785
1.32202
4.80526
5.40786
1.37033
1.89083
1.84333
0.54372
5.08597
4.51294
4.18975
4.18166
3.2492
0.447184
1.2956
1.50546
1.0119
0.508545
1.41019
3.14809
4.73835
2.06927
2.02862
3.03064
1.98807
3.03913
3.7589
4.83858
0.534698
2.06964
1.62969
2.2989
3.53076
1.99534
4.31251
2.16264
2.24322
1.70993
1.14913
1.99343
2.94781
3.59683
1.40848
1.94289
0.581996
1.3278
2.38664
2.48674
2.38884
3.07653
1.48841
3.2924
1.08672
1.96517
1.42332
1.42105
1.7498
1.54464
2.01771
1.8594
3.60472
1.05297
1.92889
4.2678
2.51878
2.63015
1.06167
2.75174
2.30627
1.85995
1.20297
1.9435
3.43702
3.89957
2.07568
1.4106
2.75085
2.68222
5.70402
0.43143
2.4654
2.91772
2.01609
1.88043
2.003
3.48252
0.916699
1.56982
1.02961
0.506216
2.57969
1.46278
3.38947
3.32374
4.29864
1.84457
2.59316
1.15344
3.12627
1.66815
1.778
2.73751
2.99552
2.88265
2.33949
1.97585
2.17465
3.68325
3.32249
2.83924
2.58769
1.09957
2.48092
0.806173
2.00961
2.06182
1.85955
2.66949
1.12395
2.01285
1.3802
3.63351
3.1107
2.81115
0.612851
2.85475
1.63759
0.480574
0.395922
4.05094
1.41528
0.921671
0.41626
5.08701
2.58793
1.85133
4.76073
0.857767
4.68958
1.27993
3.99311
4.66605
4.34192
3.08813
3.00677
1.22162
0.626755
5.369
5.14617
2.68486
2.02515
2.59985
2.64404
5.43133
3.05192
0.912603
0.397625
2.91145
4.0655
4.04742
2.76673
3.85578
2.28919
1.31946
1.08498
1.65491
1.80654
1.63212
4.49206
2.87425
2.48173
4.24388
4.53436
3.54164
3.24154
0.524029
2.54367
0.41097
2.59644
2.67581
4.19029
2.67575
1.07999
3.50824
3.72158
4.15822
1.19568
0.435137
0.404618
1.53612
2.49286
2.10604
2.45809
1.43771
2.46547
2.09137
1.79017
1.79349
3.52219
1.24471
2.03151
3.80705
4.74449
2.61506
1.20611
2.67726
3.78439
2.21678
0.378509
0.92638
2.20015
3.03368
1.12744
3.7167
2.13239
4.33084
3.21047
2.12066
2.08096
2.03101
3.45839
1.4983
1.26322
2.18316
1.77747
6.00657
5.70786
3.46382
0.880384
1.3828
1.53764
2.16222
2.82781
3.92892
3.2232
3.28473
2.71392
2.33511
0.404901
1.06525
1.2011
4.17907
3.46706
4.74511
3.98219
3.03624
2.73957
1.41972
2.45896
3.33421
1.93438
1.14537
0.871434
0.801745
0.840517
0.764237
2.52481
3.58664
3.449
0.724691
5.24764
2.55921
0.859515
5.43562
1.29524
1.74264
3.19492
3.05493
0.426208
3.26392
3.26385
3.72995
1.29181
2.92883
3.32009
2.48328
2.78871
3.78206
3.20436
4.38695
2.37816
3.85333
2.75307
3.33151
0.89342
2.16622
0.933203
3.04926
3.12822
4.93837
1.31283
4.55134
2.2218
4.80684
1.01028
2.00835
1.62755
0.715632
2.11045
4.63066
4.46017
1.48373
3.75729
1.90296
0.407234
1.49315
2.75692
1.3387
0.419277
1.99933
2.74002
2.01152
5.80492
0.450389
1.44249
1.49341
0.766956
1.25604
1.52635
3.73569
1.85851
1.50051
2.35571
0.988403
6.42865
0.643008
0.379965
1.72394
3.63761
1.12162
3.382
3.00265
2.51057
2.39489
1.95264
0.990892
2.07706
2.2345
3.8881
4.50088
5.1841
5.14463
1.19458
1.84703
3.56252
2.12423
1.4448
3.89802
3.82298
1.35053
1.28939
1.54188
2.93821
1.63299
1.08103
0.452873
0.856384
1.76401
4.87671
3.87053
3.48626
1.73982
1.20823
2.20222
3.29221
0.43929
3.22661
2.80614
3.18709
1.2271
2.98261
4.23396
2.50935
4.56569
3.42541
2.32557
1.99212
2.10176
3.12208
3.29325
2.06974
5.52492
1.33483
1.99839
1.81534
2.13411
1.26706
1.15311
1.26235
3.28844
0.418817
1.84762
0.950624
2.06873
4.67478
3.1597
2.6844
1.78768
1.77334
2.44178
3.44251
3.1724
1.36472
2.03458
2.08552
2.48399
1.68901
2.97957
2.08881
2.04918
2.51846
2.80051
2.61492
0.555209
1.17442
1.49754
2.33293
3.75835
2.37755
1.26398
2.37115
3.24397
0.707711
1.28741
0.571104
0.524369
0.713638
1.14253
1.60525
1.67549
3.66045
2.5376
2.63788
3.28608
3.24501
4.59752
1.72662
5.54889
3.52438
0.579639
0.594859
2.92872
2.16278
2.18402
0.95766
3.02478
1.86462
3.76765
3.68891
1.57766
0.450963
1.8206
3.00541
2.21967
2.61515
3.05446
2.97482
2.43586
1.44962
1.88923
1.88241
2.22827
1.02972
1.11321
1.94548
3.10649
1.05178
1.70654
3.38217
2.52421
2.63645
1.81523
4.04877
1.92674
2.43303
1.09366
0.756644
1.08577
1.32478
1.39205
2.22261
2.71782
3.15534
1.11385
0.458115
0.442655
1.53369
1.75638
1.11916
3.11199
2.97759
3.01397
1.7476
0.749129
3.13874
2.94157
2.81738
5.85793
1.68954
2.01898
6.51779
0.53682
7.93952
2.36628
2.06992
0.979047
0.550578
0.578584
1.86868
2.53585
2.87682
1.53918
3.32896
1.60401
2.03998
2.47932
1.6959
1.95303
1.57171
3.54866
1.71328
2.49128
3.26492
2.86576
3.64004
4.30714
1.83526
3.22163
1.48815
0.684401
3.13076
0.516658
2.93495
1.98574
2.16784
3.79582
1.66056
1.96944
3.59858
3.71325
5.17526
4.83559
4.81896
2.79328
1.607
3.87552
3.97423
4.76855
0.498633
0.620348
3.33476
3.62951
3.90793
1.36079
1.2975
1.93506
0.572058
0.573028
3.87393
1.62232
0.875093
0.94851
2.16889
0.504282
3.87155
1.29857
1.2493
0.611191
0.961522
6.07731
3.10815
2.72207
3.37302
2.90825
5.47653
1.78885
2.71548
2.25296
1.15729
1.82321
1.96887
2.0083
0.450271
2.53532
2.18297
2.18901
1.71644
0.452173
2.42254
0.781377
1.3616
0.929728
0.427552
1.40965
1.65712
1.3686
5.65329
5.51704
2.68605
2.77429
4.12306
3.38604
1.74745
5.14451
1.76073
1.8522
2.83778
3.26122
2.83419
2.35679
1.71729
1.48086
2.39599
1.68996
1.50639
0.717864
1.28291
1.08313
3.22523
1.89661
3.25879
2.60606
1.49924
1.16718
1.84341
2.00933
3.15748
2.68615
2.96641
2.07757
1.95108
0.621189
0.589562
2.03967
0.41884
2.02135
2.8573
0.891524
1.30996
1.54991
2.85866
1.98643
1.81588
1.86781
3.91234
1.52407
3.29135
3.11691
4.10769
3.89478
3.37369
2.47091
1.17049
1.68614
1.2738
1.0231
2.59886
1.47698
1.47793
3.23852
2.68125
1.32496
1.44816
4.23463
2.70083
1.5044
3.40585
0.493944
2.74
3.42909
1.37864
2.21244
3.20229
3.14689
3.05312
2.94196
0.529271
1.91454
1.42037
3.90758
5.2048
3.47784
0.816518
2.24625
3.34946
2.197
2.9011
3.215
1.00968
1.10886
3.28262
2.5134
1.08744
0.975257
2.38379
0.541696
4.9997
3.5216
3.27368
0.606727
2.92044
5.95574
2.70348
1.25938
2.80906
3.2916
3.01992
4.73388
0.473717
3.28361
0.439563
2.92249
2.3333
1.91785
1.04022
1.40915
2.73436
2.97978
1.86326
3.00739
2.70064
5.27632
1.60582
1.51027
0.431407
0.666068
1.17175
0.403066
2.45984
0.414343
5.24461
3.0229
1.15389
2.28323
3.25854
1.68975
1.45301
1.27266
3.2644
3.20348
1.85254
1.85941
4.32214
3.5191
0.536573
0.557511
1.23011
1.20973
2.21095
0.809352
0.401311
1.35934
1.29503
1.79272
0.413609
0.476498
1.53237
0.613298
0.390699
2.02609
2.87646
1.52303
1.23537
3.50622
1.95137
3.54943
2.3847
4.95068
3.31291
2.93205
2.23732
2.94062
3.05163
2.7272
3.99633
0.456224
1.00732
1.03381
1.84492
1.39764
1.89533
1.94315
2.41029
2.38789
0.929938
1.06342
2.57413
1.26231
2.63581
0.550659
0.57294
1.83307
2.52829
3.05171
1.63937
4.86148
1.49227
2.13707
2.17343
2.97433
3.77234
4.67356
1.71324
2.28352
2.12751
1.59379
2.45678
1.90042
3.02877
1.44762
1.63589
1.91056
3.42176
0.559296
1.36307
1.55329
3.51492
0.812732
2.45742
1.46379
1.11769
1.15519
1.20751
1.67915
1.55473
0.920444
2.71564
1.5998
2.87153
2.76322
1.48203
3.25525
3.2716
1.17962
2.54392
1.26697
2.23859
1.10183
1.26114
2.65932
1.11064
0.961872
1.61932
1.56843
0.596353
1.7165
1.15265
3.86921
3.73033
1.70763
0.797877
6.30278
1.36665
1.02104
2.21313
3.07863
4.39967
1.8703
1.00724
1.97243
3.21744
3.21764
2.44915
2.15849
2.1677
2.96103
2.17744
2.1576
1.5751
1.81876
1.9285
2.78767
1.55203
2.77946
1.34551
3.33164
0.64518
0.842126
3.8006
1.18023
2.53991
1.93051
1.03368
2.06094
0.408941
0.654786
0.740634
5.99186
0.629425
5.03873
2.54247
0.555766
3.46728
1.28245
1.36925
3.61683
0.5473
0.520395
1.03675
3.94798
5.01486
5.11497
1.60366
3.68797
3.42431
1.81725
2.36207
3.92945
2.71465
1.19219
0.391278
1.15438
2.59544
2.44051
0.453089
0.846697
2.06451
1.50017
4.11726
2.91155
2.73241
6.11499
3.56955
1.17198
1.19789
0.454314
2.635
2.33118
2.14258
4.48036
1.44778
1.83073
3.18724
2.57238
0.411583
4.77471
2.34839
1.55254
1.04614
0.975262
1.97457
2.03613
1.43083
0.596764
2.81302
2.41445
1.2242
3.36905
0.836524
0.709721
0.871404
1.15625
3.51174
0.768053
1.95154
1.30776
3.79709
3.90172
2.69938
1.84183
1.21874
1.34071
2.22844
2.34797
0.567269
5.79694
1.08502
2.19018
4.67044
4.21595
1.67407
2.29152
1.02385
2.59464
1.27888
0.565145
2.79222
1.03864
0.478296
2.99748
2.45151
2.26885
1.4243
2.51529
1.11872
1.96597
1.40198
1.47977
3.12753
3.02784
1.95597
1.93712
0.451085
0.446617
2.05233
2.88219
4.62733
0.543931
0.530676
3.47761
3.62789
5.61154
2.35399
0.648173
2.15409
1.81409
5.48591
5.25923
2.82519
0.827113
0.409058
1.14191
5.42564
4.95062
2.13863
2.16217
1.9812
2.42157
1.12062
1.03064
2.85331
1.00817
6.29318
1.17104
1.31319
1.65459
2.08613
1.3251
2.15108
2.14068
2.96656
1.72378
3.31228
3.8875
0.402473
2.51746
1.32501
0.918239
3.95326
1.91395
1.30119
4.46719
0.433668
7.70896
6.12662
1.94564
1.71931
3.44982
2.51641
3.13045
5.35533
0.411877
2.98025
0.445948
0.443214
3.03969
2.85072
3.04911
1.43018
2.61452
1.91742
1.72106
1.16389
1.80953
4.01773
1.59985
0.436979
0.459182
1.32044
0.793458
0.758528
3.50323
1.87646
4.11545
3.56839
1.16623
1.14097
1.31508
3.31849
2.89564
4.07253
4.35063
1.97068
3.29997
0.710172
2.91605
2.55237
4.90506
4.39502
4.95518
0.424868
1.86687
0.553058
3.37226
3.39542
3.36614
3.17544
2.68048
1.72591
1.7799
2.01038
5.01674
2.0696
1.91318
3.24515
1.80464
0.512707
0.379746
3.12225
2.7464
2.34599
2.10348
2.52942
1.5278
1.59243
3.2552
2.74913
1.56983
0.871615
1.76615
3.24712
1.79581
1.33115
3.51349
3.14313
1.10142
5.00556
2.19586
3.20574
3.08407
1.43389
2.62723
2.79375
2.98865
1.74042
2.39072
1.21621
3.30524
1.52678
0.922607
2.63171
5.12897
5.10145
3.23383
2.59404
4.12472
2.10606
2.98666
3.59472
3.19271
1.53886
2.29122
2.47841
2.59652
2.62722
3.923
3.44602
3.16219
1.07909
3.38216
3.16024
0.650999
3.67349
0.402391
1.56351
1.02679
3.19206
2.2065
2.25772
1.55321
4.75833
3.62827
3.24325
0.859555
1.43603
2.3569
2.34252
2.15942
3.72369
1.21399
2.19731
1.23107
0.405157
0.404498
0.695943
2.90224
2.99814
2.76196
1.67952
2.61038
0.525871
1.12197
1.137
2.70106
2.61125
1.69624
1.80871
1.62236
1.55726
2.10854
1.11659
2.23803
1.8966
2.2147
1.83153
2.93806
1.82873
1.47451
2.37517
0.537514
1.5554
3.35649
3.18096
1.25018
1.37636
1.09895
5.87555
1.41577
0.926944
4.62845
5.28962
3.6334
2.35539
2.19858
2.57112
2.13808
2.35315
2.55667
4.6697
1.55197
1.44021
2.73634
2.17474
1.94115
1.09886
2.08915
0.436853
3.12583
1.93333
1.76759
1.78842
1.93316
2.85779
1.85915
1.88499
3.43668
3.16691
0.775353
3.57676
1.78012
1.68848
1.23543
0.409884
1.40065
3.83247
2.87805
0.54363
2.17532
1.32035
1.3431
1.41246
1.2729
1.09876
0.931935
0.937271
4.12567
1.6534
1.48916
1.04485
0.901485
0.773317
3.34769
2.98084
3.3869
2.87013
1.15742
1.99241
1.41969
2.99339
1.05305
1.98521
1.28182
3.87166
3.6051
3.33132
2.20659
3.66675
2.20953
3.31689
5.16464
2.41264
1.42182
2.13872
4.04312
2.16053
1.33272
1.88703
2.27632
1.49513
3.04256
0.891412
1.03005
0.860112
1.34533
3.2737
0.788411
7.15352
3.14465
2.08082
2.81448
4.52078
2.10499
2.20366
1.49712
2.61135
2.91912
1.54293
2.93176
2.18285
4.63974
1.71146
1.91511
2.10256
1.57208
4.88192
2.94354
4.68715
1.89935
0.535606
1.48307
5.00482
1.45063
1.32438
2.16924
2.07819
4.38368
1.923
2.47814
2.81128
0.673895
2.1173
1.9302
1.97984
0.989338
3.74356
1.82624
0.875072
1.62217
0.540911
1.05486
2.17054
3.15215
4.11226
4.4957
1.79549
0.754829
0.594007
0.627238
3.24459
1.42443
2.75983
1.59452
2.29853
1.7177
3.71688
2.66708
2.84623