/*--------------------------------*- C++ -*----------------------------------*\
| =========                 |                                                 |
| \\      /  F ield         | OpenFOAM: The Open Source CFD Toolbox           |
|  \\    /   O peration     | Version:  2212                                  |
|   \\  /    A nd           | Website:  www.openfoam.com                      |
|    \\/     M anipulation  |                                                 |
\*---------------------------------------------------------------------------*/
FoamFile
{
    version     2.0;
    format      ascii;
    arch        "LSB;label=32;scalar=64";
    class       volScalarField;
    location    "10";
    object      nut;
}
// * * * * * * * * * * * * * * * * * * * * * * * * * * * * * * * * * * * * * //

dimensions      [0 2 -1 0 0 0 0];

internalField   nonuniform List<scalar> 
76335
(
0.00124898
0.00104579
0.000703424
0.000949125
0.00096746
0.00117623
0.00117351
0.00103003
0.000997135
0.00105948
0.00120861
0.000796324
0.00066753
0.00107733
0.000978073
0.000867268
0.00105162
0.00107966
0.00103396
0.000895298
0.00125226
0.000893589
0.00112886
0.00117642
0.00124156
0.00135176
0.00125949
0.00124175
0.00125317
0.000781445
0.00111447
0.00104118
0.00109439
0.00117823
0.00117343
0.000895666
0.00123619
0.000969503
0.000855553
0.00116115
0.00116875
0.001247
0.00140723
0.0011611
0.0011658
0.00112747
0.00104506
0.0010962
0.00105334
0.000986851
0.00105347
0.00102228
0.000659303
0.000871629
0.000696084
0.0012442
0.0013833
0.000842948
0.00118091
0.00100378
0.00109601
0.00141032
0.00133193
0.00125896
0.00127084
0.00127909
0.0010611
0.000970059
0.000777315
0.000872692
0.000901039
0.000889742
0.00113205
0.00122655
0.00108178
0.000947063
0.00114628
0.000879535
0.00123338
0.00124854
0.00130929
0.00109131
0.00093204
0.00111824
0.00103884
0.0012511
0.00106031
0.00136569
0.00119065
0.00111872
0.000718976
0.00109476
0.00120915
0.00129663
0.00133858
0.00116326
0.00112965
0.000924016
0.00106378
0.00110222
0.00106082
0.0010152
0.00109278
0.00114623
0.0012313
0.000666695
0.000860701
0.000985038
0.00101999
0.0012753
0.00120481
0.00112493
0.00104715
0.00142478
0.00107516
0.00106653
0.00125983
0.00108662
0.00111385
0.000845597
0.0012282
0.00107354
0.00120382
0.00104147
0.00105126
0.00126013
0.0011787
0.00107856
0.000941605
0.00113885
0.00116546
0.00131802
0.00103476
0.00106644
0.00100747
0.00100577
0.00106295
0.00103501
0.00102578
0.0010256
0.000799468
0.00107369
0.000932146
0.00119999
0.00118895
0.00120605
0.00119965
0.00132283
0.000820866
0.00105197
0.000931492
0.00131593
0.000753936
0.00104511
0.00116357
0.00112017
0.00109553
0.00120699
0.00128762
0.00129017
0.00129226
0.00123672
0.000949856
0.00113199
0.00101032
0.00106398
0.00106237
0.00101587
0.00096256
0.00122746
0.00103243
0.000768081
0.00126181
0.00120181
0.00132425
0.000970327
0.00100036
0.000940185
0.00099693
0.00107644
0.000963308
0.000986995
0.00129079
0.00110485
0.00101588
0.00108655
0.00136372
0.00117011
0.00122531
0.00133507
0.000981922
0.00135514
0.00105969
0.00132882
0.00131977
0.0013211
0.00124916
0.0012739
0.000644219
0.00101958
0.00130531
0.00127494
0.00108148
0.00105995
0.00110319
0.00104955
0.00111597
0.00077095
0.00111358
0.00102425
0.00110193
0.0012928
0.00134425
0.000987431
0.00103772
0.00100095
0.000816987
0.000839236
0.00113841
0.00115718
0.000987662
0.00114433
0.00120285
0.00111102
0.00111366
0.00110943
0.00146674
0.00124973
0.000979733
0.00107294
0.000925149
0.00120394
0.00121063
0.0013944
0.000909739
0.00107565
0.00125294
0.00122953
0.00112398
0.00102368
0.00106854
0.00104183
0.00110546
0.000991147
0.000993002
0.0011
0.00104681
0.000972025
0.000899649
0.00105117
0.00101701
0.00109786
0.000711934
0.000965549
0.00110972
0.00133777
0.00100818
0.000698215
0.000920976
0.00123766
0.00118053
0.000978716
0.000759513
0.00111791
0.00117433
0.0010999
0.00126597
0.00111418
0.00100643
0.00121973
0.00104311
0.000947732
0.000980339
0.00105501
0.00104914
0.00108388
0.000988101
0.00117016
0.00130412
0.0010407
0.00125376
0.000926752
0.00101252
0.00104287
0.00100914
0.000970481
0.00144213
0.00101041
0.0012582
0.00113459
0.00106088
0.000935211
0.000872735
0.000888433
0.00139329
0.00127287
0.00128698
0.0010822
0.00114588
0.00112202
0.00110416
0.00120043
0.0010681
0.00108279
0.000962169
0.0009959
0.00104067
0.000840944
0.000803321
0.00120891
0.00147646
0.00116219
0.00109268
0.00137573
0.00111254
0.000943439
0.00123297
0.000844396
0.000883506
0.00123167
0.00121624
0.00106125
0.00104656
0.00109327
0.00127528
0.00107086
0.00111533
0.0012439
0.000986701
0.00126659
0.00132062
0.00132479
0.00134465
0.00099122
0.00126979
0.00115038
0.00131881
0.00095367
0.00113534
0.00105097
0.00102514
0.00126377
0.00123901
0.000811953
0.00110935
0.00112744
0.00112374
0.00106273
0.00105747
0.000879277
0.00100797
0.00107453
0.00124907
0.00123942
0.00109893
0.0013114
0.00113007
0.00102611
0.00103516
0.00120105
0.00113361
0.000898881
0.000968346
0.00119075
0.000851628
0.00165677
0.00108537
0.000898652
0.000913954
0.00102789
0.000731205
0.000713075
0.00140139
0.00102613
0.00102379
0.000720654
0.00108255
0.0012544
0.000879084
0.000964806
0.000988611
0.00125523
0.00105414
0.00129138
0.00106341
0.00102093
0.00105126
0.00112176
0.000850718
0.00106996
0.000926823
0.00155253
0.00158046
0.00124196
0.00137778
0.000860707
0.00106848
0.00112731
0.00125212
0.000849936
0.00137537
0.00137623
0.000968204
0.00104108
0.00107418
0.000975837
0.00117742
0.000948641
0.00105028
0.00103369
0.000751666
0.0011278
0.00137297
0.00130155
0.000892148
0.000892198
0.00091101
0.00110658
0.000903691
0.00110277
0.00121005
0.00122828
0.000902093
0.00120224
0.0013031
0.00122702
0.00131025
0.00100245
0.000997007
0.00105866
0.00100123
0.00108274
0.00115551
0.00103741
0.00154108
0.00109977
0.000667109
0.000646968
0.000901628
0.000792564
0.000827457
0.000835874
0.00126932
0.00107451
0.00102032
0.0008764
0.00102383
0.000685816
0.0012073
0.00115946
0.0010061
0.000890618
0.00107575
0.00128875
0.00130015
0.00109255
0.000986023
0.000927378
0.000806372
0.000948085
0.00115987
0.000917662
0.000855752
0.00110907
0.00117447
0.00105441
0.000901565
0.000809444
0.000864228
0.00113685
0.00136315
0.000794793
0.00111212
0.000950009
0.00119238
0.00108388
0.000832856
0.000908435
0.00089596
0.00104858
0.000878148
0.000918551
0.00103334
0.00122505
0.00103032
0.00131255
0.00103892
0.00110464
0.00147044
0.000919419
0.00140092
0.00106986
0.000915045
0.00091528
0.00117437
0.00105554
0.000950204
0.00106688
0.000983472
0.0011212
0.00117762
0.00118017
0.00102681
0.00106422
0.00122823
0.00105629
0.00125136
0.00126172
0.00120849
0.0010349
0.000975075
0.00086826
0.000730975
0.00115001
0.000941985
0.00104631
0.00105149
0.00124616
0.00103767
0.000878344
0.00108053
0.00109832
0.00112132
0.00110021
0.00093216
0.00120744
0.00110497
0.00110296
0.000967316
0.000988777
0.000853629
0.00095187
0.00102953
0.00104649
0.00121938
0.00121158
0.000878508
0.00105266
0.00105062
0.0007152
0.000771741
0.00090832
0.000959614
0.00116917
0.00122408
0.00114292
0.00105306
0.00115903
0.00110196
0.000978703
0.00108178
0.000895209
0.000886813
0.00172452
0.000986734
0.0016317
0.00111464
0.00124659
0.00105027
0.000901745
0.000906934
0.00115935
0.00111447
0.00119897
0.00114203
0.00114732
0.000854143
0.00114183
0.00104453
0.000828058
0.000845653
0.00112654
0.0013038
0.00118873
0.00114171
0.00128998
0.00127218
0.0013552
0.00144594
0.000934291
0.00129206
0.00112817
0.0010596
0.0012074
0.00101053
0.00117742
0.00118866
0.00124281
0.000910846
0.000741971
0.000890794
0.00116571
0.00125936
0.00117359
0.00125337
0.00124147
0.00128546
0.00113341
0.00137708
0.0011498
0.00124462
0.00105517
0.00106693
0.00121567
0.00128615
0.00106139
0.000898285
0.000949993
0.00116382
0.000918021
0.000919528
0.00124459
0.000989087
0.00103384
0.00106012
0.000717323
0.00104331
0.00116531
0.00105882
0.000939463
0.00108868
0.0010569
0.00166124
0.00108714
0.00113791
0.00120053
0.00092965
0.00153628
0.00115736
0.00120297
0.00113565
0.000931887
0.00118173
0.00110235
0.00118333
0.000909907
0.000641568
0.0011803
0.00107195
0.00116654
0.0010734
0.00103659
0.0010064
0.000954438
0.000827032
0.00104231
0.00109083
0.00103216
0.00102922
0.00121576
0.00128739
0.00120287
0.00121473
0.00116469
0.00122485
0.000957264
0.00136412
0.00106685
0.00105503
0.00118738
0.00116249
0.00115524
0.00104874
0.0010403
0.00101932
0.0012611
0.000881975
0.000967081
0.000984406
0.000883056
0.000901843
0.00109546
0.00123842
0.00133053
0.00128984
0.000845318
0.000775968
0.00109834
0.00123736
0.00121164
0.00130297
0.00126128
0.00101049
0.00097095
0.00093724
0.000923307
0.00113681
0.00106419
0.000930841
0.000986506
0.00072711
0.000797759
0.000888204
0.00110755
0.00115783
0.000806323
0.000872882
0.00104375
0.00114639
0.00126604
0.00102838
0.00127035
0.00130252
0.00125397
0.00110813
0.000947974
0.000950077
0.00110939
0.00106033
0.00115541
0.00113956
0.00115352
0.000977649
0.00114349
0.00105741
0.00107543
0.00115965
0.00129544
0.00110192
0.0013014
0.00107932
0.00106931
0.00124598
0.000910189
0.000938607
0.00113331
0.00127398
0.00119314
0.000900025
0.00103408
0.00103415
0.0010411
0.00129653
0.00158431
0.00108917
0.0010442
0.00103317
0.00112857
0.000972454
0.000858202
0.000772668
0.000932739
0.000948156
0.00126616
0.0012303
0.0010226
0.000854489
0.00116202
0.000909622
0.00150447
0.0013444
0.00141715
0.000935995
0.00119811
0.00154277
0.00119862
0.00113195
0.00129218
0.00125477
0.00106446
0.00137487
0.0011068
0.00142292
0.0010525
0.000833687
0.000879687
0.000879515
0.000873085
0.000905372
0.00120024
0.00101782
0.000946482
0.00116374
0.00118322
0.00140758
0.000903516
0.000873349
0.00105842
0.00106433
0.000979528
0.000956154
0.000897007
0.00106396
0.00129937
0.00100946
0.00109438
0.00121948
0.00126419
0.00117006
0.00111137
0.00109415
0.00126988
0.00112834
0.00119385
0.00114152
0.00126499
0.00124565
0.0008978
0.000933606
0.00106916
0.000848085
0.0012226
0.000734035
0.00100657
0.00111178
0.00111088
0.0010951
0.00106883
0.00110132
0.0010416
0.000908244
0.000976234
0.0010017
0.00131635
0.00110145
0.000848771
0.000974622
0.00113592
0.0013337
0.00101002
0.0013522
0.00115765
0.00119436
0.00103504
0.00123838
0.00119308
0.00110623
0.00136954
0.00107612
0.000881989
0.000950937
0.000911061
0.000824414
0.00093822
0.00101389
0.00117763
0.000955518
0.00106641
0.00109088
0.00102131
0.00110181
0.000986864
0.00105845
0.00105462
0.00109864
0.00103381
0.0011201
0.00116888
0.0013046
0.00118474
0.00115148
0.0012036
0.00119267
0.00129236
0.00143844
0.000626051
0.00125544
0.00124957
0.000858855
0.00112988
0.000983518
0.00128652
0.00109333
0.001056
0.000752889
0.00103218
0.000902898
0.000821136
0.000892996
0.00134265
0.000999072
0.000957428
0.000776597
0.00106517
0.000929286
0.000804649
0.000840181
0.00111308
0.000815656
0.00107538
0.00106434
0.00115136
0.00108232
0.00107944
0.00124059
0.00109073
0.00103196
0.0011081
0.000932592
0.00099993
0.00108295
0.00111032
0.00106098
0.000749179
0.000803107
0.00102771
0.00107339
0.00109269
0.00104826
0.000977795
0.00139439
0.00138712
0.000874127
0.00104939
0.00154403
0.000998128
0.001026
0.000967868
0.00103988
0.00124652
0.00107887
0.00108458
0.000836421
0.00117741
0.0011722
0.00103883
0.00113219
0.000865327
0.000913649
0.00103148
0.000871731
0.00105126
0.0011088
0.00105299
0.000950111
0.000951116
0.00117569
0.000976084
0.00122904
0.000966263
0.00102994
0.00131512
0.000966879
0.00124657
0.00104189
0.000847397
0.00111733
0.00106072
0.000928612
0.000956831
0.00144617
0.000943523
0.00138607
0.00115524
0.00111977
0.0014281
0.00108857
0.00086868
0.00117695
0.00109265
0.00110176
0.00107801
0.0011901
0.00134439
0.0010549
0.000935344
0.00109974
0.00136115
0.000806763
0.00119327
0.00137917
0.00110749
0.000968876
0.000963819
0.00103824
0.00108249
0.000954611
0.000997647
0.000730685
0.00118675
0.000994473
0.00132233
0.00102845
0.00126357
0.00172295
0.00139662
0.00077012
0.00108052
0.00100809
0.00091279
0.000965516
0.00119025
0.00119192
0.000939613
0.000937677
0.00129334
0.00116731
0.000917822
0.00125543
0.00113527
0.00110941
0.000766416
0.000762991
0.000959759
0.000974137
0.000866537
0.00107993
0.00132261
0.00119783
0.000876776
0.00113714
0.000945938
0.000918292
0.000929936
0.000857166
0.00114776
0.00101621
0.00125913
0.000832649
0.00133995
0.00122691
0.00123642
0.00113635
0.00099461
0.00101797
0.00107998
0.00108614
0.000912704
0.00144776
0.000794312
0.00126073
0.00137381
0.00123952
0.000970079
0.00114889
0.000805044
0.000929196
0.000955211
0.000911316
0.00117813
0.000904023
0.000907195
0.00126987
0.000972346
0.00112423
0.00090798
0.00117603
0.000867657
0.0007953
0.00112864
0.00112455
0.00136692
0.000960679
0.00115781
0.00110942
0.00106875
0.00107216
0.0011834
0.00139719
0.00122422
0.000907259
0.000910042
0.0012879
0.00130384
0.00147862
0.00115429
0.00107533
0.00118128
0.00113069
0.00138927
0.00136331
0.00104542
0.00101021
0.000911644
0.00100586
0.00129877
0.00123898
0.00126038
0.00111576
0.000954612
0.00118065
0.000853229
0.00102231
0.00118627
0.000802661
0.00127646
0.000987742
0.00089762
0.0011217
0.000939675
0.00109301
0.00108733
0.00103369
0.00131594
0.000867944
0.0012373
0.00144947
0.00106546
0.000987879
0.000876153
0.000821072
0.00111663
0.000959498
0.000966837
0.00116926
0.00108091
0.00179259
0.0015901
0.00109104
0.000937128
0.00111478
0.00118795
0.00116812
0.00117092
0.00106261
0.00121703
0.000927394
0.000974829
0.00120048
0.0011472
0.00101462
0.00115754
0.00121551
0.000804982
0.00106872
0.000891369
0.000957885
0.00122609
0.00117369
0.000925662
0.000902584
0.000945184
0.0010704
0.00109084
0.00141719
0.000873711
0.00122835
0.00108355
0.00107394
0.000997847
0.00086671
0.00128125
0.00110107
0.00139824
0.00127066
0.000874697
0.00126146
0.00100182
0.00127288
0.00111658
0.00148705
0.00152529
0.00144802
0.00107683
0.00101471
0.000913208
0.00136616
0.00117942
0.0012044
0.00125648
0.000961263
0.00125881
0.00116634
0.00113151
0.00128798
0.000991652
0.000950488
0.00109997
0.00107347
0.000907943
0.000985382
0.00110407
0.00102349
0.00119843
0.00119629
0.00119227
0.000836163
0.000923521
0.00136827
0.00126498
0.000886618
0.000899091
0.00115325
0.00110373
0.00118146
0.00105392
0.00135405
0.00124642
0.000992279
0.0014505
0.000941694
0.0010772
0.00140491
0.0010027
0.000999321
0.00126828
0.000773372
0.000890524
0.000898638
0.000904169
0.00123928
0.00107398
0.000998928
0.00115686
0.00129463
0.00154573
0.00108283
0.00108155
0.00135121
0.00114534
0.00110478
0.00121248
0.001124
0.00086259
0.000984011
0.00114814
0.00129143
0.00102314
0.00128011
0.00126831
0.00125139
0.000917137
0.00123271
0.00121308
0.000879317
0.000990792
0.00107072
0.00109605
0.000808716
0.00119161
0.00105636
0.00105967
0.000995669
0.00126648
0.00121353
0.00109447
0.000722973
0.000965049
0.00127265
0.00129894
0.000889562
0.00127404
0.000818561
0.00096752
0.000882588
0.000896441
0.00090758
0.000961826
0.00119509
0.00120586
0.00106136
0.000907791
0.00099879
0.000900604
0.000956739
0.00100326
0.00133202
0.00111889
0.00087475
0.000795134
0.00111573
0.00113446
0.00115975
0.00091036
0.00115789
0.00108403
0.001095
0.00107282
0.00122673
0.000981044
0.000961102
0.0011411
0.00108618
0.00109873
0.00121316
0.00117785
0.00108796
0.00109905
0.000834955
0.00154369
0.000970014
0.000710438
0.00116809
0.00127714
0.00117003
0.00125554
0.00125014
0.00125421
0.0011547
0.00126698
0.00112637
0.00120706
0.00102507
0.00107988
0.00111418
0.00112038
0.00097396
0.000860705
0.00110801
0.00106635
0.00116536
0.0010373
0.00103738
0.00106682
0.00104993
0.00116146
0.000969073
0.00111606
0.00118583
0.00116468
0.000720384
0.00119907
0.0010791
0.000910234
0.000904662
0.00107573
0.00076746
0.00114203
0.00113358
0.000890419
0.00114439
0.000977888
0.000937453
0.00106789
0.000658874
0.00108043
0.00110352
0.000973739
0.00119464
0.00103903
0.000955968
0.00102538
0.000817659
0.000841949
0.00110094
0.00100628
0.00122944
0.00109438
0.0011101
0.00101849
0.000717252
0.00121213
0.00109904
0.00104671
0.00114167
0.0011775
0.00115639
0.00113244
0.00115373
0.00131636
0.00111042
0.00118034
0.0012782
0.00117426
0.00104801
0.00110343
0.00136614
0.00107244
0.000953544
0.00115468
0.000985827
0.00108865
0.00120593
0.000991654
0.00103947
0.000994654
0.000912022
0.00112297
0.0010427
0.00139925
0.00104034
0.00105716
0.00103667
0.00122923
0.00101913
0.00103406
0.00110228
0.00108788
0.00109973
0.000641934
0.00122313
0.00110904
0.00134488
0.000988969
0.000994955
0.00119857
0.00107208
0.00113548
0.00116817
0.00116322
0.000984506
0.00109249
0.000952191
0.00122463
0.00109939
0.000965874
0.000926934
0.00102944
0.00106105
0.000911102
0.0012007
0.00127445
0.000598626
0.00129666
0.00131836
0.00102214
0.000891168
0.00111827
0.0011808
0.00101799
0.000842678
0.00107866
0.0010249
0.00105056
0.00101046
0.00139481
0.00157098
0.0010431
0.000984743
0.00111575
0.00108721
0.00113261
0.000891228
0.00104029
0.001064
0.0009614
0.000876589
0.00126789
0.0010795
0.00106339
0.00105783
0.000953277
0.000873853
0.00186889
0.0011442
0.000930961
0.00116278
0.00150779
0.000988455
0.00127314
0.00104203
0.000912554
0.000886277
0.0013628
0.00102077
0.00117831
0.00104823
0.0010505
0.00122065
0.00139657
0.000962688
0.000981583
0.00133406
0.00108319
0.00132961
0.00116114
0.000816094
0.00129257
0.00113003
0.00103798
0.0010631
0.000922483
0.000897486
0.000723309
0.000947921
0.000913111
0.00106846
0.000905555
0.00127494
0.00138736
0.000942638
0.000931077
0.00110125
0.00119109
0.00124355
0.00132524
0.00113833
0.000879318
0.000880343
0.00102758
0.00101017
0.00114471
0.00119398
0.000911195
0.0010568
0.00157394
0.000913892
0.00110766
0.000912208
0.00105653
0.000871423
0.000991072
0.000943551
0.000860856
0.00106291
0.00104811
0.00135037
0.000829294
0.0010975
0.00110085
0.000949577
0.000976315
0.0011623
0.000892595
0.00103542
0.00143058
0.00109413
0.000761304
0.00103592
0.00137774
0.000748621
0.00126425
0.00108922
0.00122671
0.00149261
0.000884258
0.001149
0.000987521
0.00131186
0.00111382
0.00112402
0.00109753
0.00100912
0.0010153
0.00117645
0.00118913
0.00104924
0.000992754
0.00124481
0.00129047
0.00114341
0.00109741
0.00105413
0.00111518
0.000674748
0.00116541
0.0010603
0.000920007
0.000796406
0.00134204
0.000752024
0.00122535
0.00116552
0.00102612
0.000944476
0.000983619
0.00173364
0.00129855
0.00145825
0.00113318
0.000932091
0.00110742
0.00119017
0.000986146
0.000926822
0.000939166
0.000992163
0.00114968
0.00128353
0.00128145
0.0013012
0.00120174
0.00125758
0.00130729
0.00122621
0.0012757
0.00115482
0.00113989
0.000962754
0.000876811
0.000931206
0.00090343
0.00103588
0.000972762
0.00114843
0.00106674
0.00122203
0.00132707
0.000968721
0.00106804
0.000706697
0.00125914
0.00100742
0.00118803
0.00122132
0.000916579
0.00106459
0.000953684
0.00108481
0.000875474
0.00100715
0.00124129
0.000874952
0.00106812
0.00110351
0.00107224
0.000990322
0.00110383
0.0011371
0.000829187
0.000919216
0.00123393
0.00105046
0.00123867
0.00136139
0.00111738
0.00105252
0.00108178
0.00117113
0.00107406
0.00110255
0.000856117
0.00120113
0.00103048
0.00102296
0.00104711
0.000928101
0.000942202
0.00124244
0.00116488
0.00106212
0.00108991
0.00118823
0.00121266
0.00123667
0.00110916
0.00099906
0.000901378
0.0012846
0.00114104
0.00114693
0.000978334
0.00112846
0.00114284
0.000874758
0.00128512
0.00096981
0.000916509
0.00114492
0.000919006
0.000994266
0.00127029
0.00136753
0.0010366
0.000978658
0.00095258
0.00116644
0.00121325
0.00122104
0.00089464
0.00151259
0.00118601
0.0010333
0.000918982
0.000954401
0.00128449
0.00119746
0.00103102
0.00109071
0.00101704
0.000938327
0.00128748
0.00109973
0.000872532
0.000992759
0.000985896
0.0012171
0.000989409
0.00112941
0.00124311
0.00125228
0.00131247
0.00123364
0.000916531
0.00122985
0.00107132
0.00118216
0.00110303
0.00119849
0.00106957
0.00109235
0.00124595
0.00123073
0.00125881
0.00082677
0.000839593
0.00112548
0.0009161
0.00107698
0.00159231
0.00121519
0.00107118
0.00124514
0.00111827
0.00117886
0.000920868
0.000941556
0.00102951
0.00112041
0.000890838
0.00131154
0.00110534
0.00121035
0.000792424
0.00140976
0.00132432
0.000980943
0.00123362
0.000914086
0.000912655
0.00105422
0.0010797
0.000937397
0.000942032
0.00153077
0.00114132
0.00118033
0.0010487
0.000799875
0.00149978
0.00107245
0.000970202
0.00107654
0.000944246
0.000875962
0.00107084
0.000992854
0.000978697
0.000968883
0.00100221
0.000936776
0.00172341
0.00111592
0.00103056
0.00156611
0.00145497
0.000838005
0.000991218
0.000716076
0.000731307
0.00114607
0.00120385
0.00118283
0.00162187
0.000891655
0.000880526
0.00152404
0.00101536
0.000978365
0.00124147
0.00107144
0.0013813
0.00116988
0.00121752
0.00128146
0.000877871
0.000980065
0.00087712
0.000813028
0.00121761
0.0010225
0.00130402
0.000760242
0.00121908
0.00125182
0.00083972
0.000849156
0.000867259
0.00113099
0.00117104
0.000905597
0.00116905
0.000952208
0.000763393
0.00119591
0.00103065
0.00112602
0.000958294
0.00110627
0.00103722
0.000995869
0.0011213
0.00124604
0.00126484
0.0010833
0.00114645
0.00102192
0.000911142
0.00124702
0.000970803
0.00118697
0.00115585
0.00111336
0.000838672
0.00108878
0.00108674
0.00109665
0.00096734
0.000785934
0.00088093
0.000632411
0.00167997
0.000764375
0.00108282
0.00102268
0.000951301
0.00111052
0.00119526
0.00120823
0.00107711
0.00134641
0.00100778
0.00107751
0.000862368
0.000987996
0.000975979
0.00132127
0.000903162
0.000887693
0.00126869
0.00101822
0.00111724
0.00110165
0.00091265
0.00123381
0.00123797
0.00130052
0.000734844
0.0011854
0.00172886
0.00106851
0.000933237
0.0010333
0.000929046
0.000830716
0.00121443
0.000961035
0.000923278
0.00116148
0.0010043
0.00110225
0.0010888
0.000679435
0.00119109
0.00117941
0.00107316
0.00111869
0.00100378
0.00109908
0.000950273
0.000703295
0.000795726
0.0011727
0.000706651
0.000787462
0.001066
0.00106749
0.000930807
0.00104455
0.00129677
0.00130909
0.00126184
0.0012496
0.000989788
0.00124798
0.00115821
0.00130275
0.000991859
0.000721328
0.0012684
0.00128541
0.00130289
0.00097745
0.0011431
0.000794173
0.00110182
0.00107106
0.00109155
0.00111628
0.00159046
0.000978729
0.000812334
0.00153486
0.000945662
0.00096463
0.00101375
0.0014159
0.000942429
0.00111528
0.00102104
0.000789172
0.00107484
0.00115975
0.00101559
0.00113394
0.00101598
0.00120373
0.00140408
0.00107997
0.0013155
0.000920799
0.00065915
0.00110874
0.00103796
0.00129338
0.00099724
0.0011443
0.00089722
0.00104736
0.0010977
0.00103875
0.00103986
0.000960856
0.00190733
0.0014977
0.00141816
0.0012982
0.0011913
0.00115614
0.00111191
0.00114182
0.000889808
0.000815638
0.00110415
0.000925444
0.00121049
0.000735207
0.00100957
0.00085989
0.000816566
0.000799295
0.00123697
0.000910467
0.00092022
0.000918589
0.000920683
0.000764442
0.00127454
0.00130458
0.00107166
0.00127001
0.00155038
0.000921159
0.000866907
0.000894644
0.000870892
0.000999839
0.0013743
0.00117015
0.00124506
0.000933936
0.000943305
0.00116289
0.000920157
0.00100169
0.00111963
0.00124711
0.00108841
0.000841154
0.00159247
0.00120864
0.00103556
0.00109439
0.00122031
0.00118521
0.00135572
0.00113956
0.00115748
0.00129518
0.00100732
0.00111725
0.00161723
0.00108387
0.00113295
0.00123965
0.00112088
0.00112209
0.00115277
0.00107942
0.000987172
0.000977404
0.000777683
0.000827189
0.00101825
0.000964018
0.00117899
0.00131813
0.00114616
0.00105568
0.00105512
0.00172537
0.00111891
0.00117748
0.00115232
0.00176831
0.000855101
0.000999869
0.000974517
0.00156333
0.001183
0.000964927
0.00100613
0.00119232
0.000831856
0.00148571
0.00115755
0.000995364
0.000796811
0.000830325
0.00109161
0.000984113
0.00089104
0.000980851
0.00112726
0.00108691
0.000786509
0.00100095
0.00129764
0.00154442
0.0011972
0.00094377
0.00095701
0.000962298
0.00115931
0.000864753
0.00105755
0.000762784
0.000774574
0.00112989
0.00111331
0.00120871
0.00109161
0.0012799
0.00135729
0.00134438
0.00125592
0.00135238
0.00132804
0.00117422
0.00119485
0.00127364
0.000930535
0.00109819
0.000928685
0.00095348
0.000926421
0.00101905
0.00130693
0.00130868
0.00117965
0.000849806
0.000963992
0.000949838
0.000854139
0.00104158
0.000947017
0.00119068
0.0012344
0.0010318
0.00100441
0.00106889
0.00161462
0.00152748
0.000843222
0.000834959
0.000765341
0.000911346
0.000983993
0.000932013
0.00093171
0.00136132
0.0014959
0.00136995
0.00126792
0.000973199
0.000928101
0.00125202
0.00105815
0.00113234
0.00121375
0.000997001
0.000926801
0.000902791
0.00124277
0.00093844
0.000864416
0.0012856
0.00108477
0.00154511
0.000903839
0.0006457
0.00106633
0.00121002
0.00095662
0.00101158
0.000701095
0.000916209
0.000992026
0.00095255
0.000801665
0.000842926
0.00103687
0.00111885
0.00116421
0.00105615
0.00105047
0.00106479
0.00114036
0.00118777
0.00156623
0.00100499
0.00109912
0.000867866
0.000692026
0.00107917
0.00105222
0.000971841
0.000884955
0.000999525
0.00067702
0.00130516
0.00122705
0.00101012
0.00151707
0.0011767
0.00116705
0.00110519
0.000686546
0.001048
0.000685339
0.000948361
0.000907545
0.00106108
0.00114536
0.00119053
0.000989818
0.000904607
0.00115576
0.00108139
0.000897981
0.00100507
0.00127982
0.00113088
0.000943436
0.000969739
0.00118969
0.00112941
0.000876355
0.000718434
0.000986893
0.0010682
0.000903457
0.000997074
0.00112259
0.000895984
0.00107276
0.000983882
0.000884163
0.000796918
0.000873291
0.000801304
0.000803042
0.000831502
0.000788578
0.000920905
0.000925087
0.00114632
0.000976295
0.000689547
0.000878854
0.00108146
0.000838399
0.000881753
0.00109667
0.00116397
0.00114244
0.00106822
0.00111827
0.00109651
0.00113236
0.000720066
0.00123625
0.000859144
0.000912185
0.00078462
0.00106371
0.00117363
0.00119728
0.000793022
0.00107665
0.00109493
0.00474057
0.00328685
0.00320182
0.00267618
0.00385195
0.00403821
0.00661433
0.00406542
0.00746277
0.00436097
0.00614569
0.00232651
0.00185217
0.00220629
0.0039546
0.00216864
0.00310459
0.00252337
0.00323325
0.00558235
0.00600824
0.00251371
0.00552494
0.0054776
0.00903604
0.00908924
0.00766129
0.00718348
0.00710362
0.00361101
0.00439642
0.0016096
0.0104368
0.00427878
0.00472981
0.00382426
0.0106419
0.00146903
0.0042505
0.00403995
0.00504761
0.00531054
0.0100911
0.00535955
0.00446517
0.00443025
0.00339136
0.00345288
0.00203739
0.0023181
0.00387682
0.00482259
0.00518593
0.00433475
0.00357604
0.00699363
0.00958591
0.00355148
0.00457669
0.00485769
0.00149446
0.00940167
0.00875106
0.00830821
0.00760393
0.00633584
0.0016153
0.00431806
0.00546861
0.00222683
0.00194806
0.00332176
0.00574918
0.00805496
0.00517566
0.00562854
0.00682974
0.00543571
0.00651951
0.00501917
0.00893328
0.00162214
0.00549549
0.00400765
0.00419794
0.00638816
0.00496595
0.00951978
0.00469875
0.00446405
0.00435911
0.00405841
0.00602494
0.00577322
0.00512163
0.00474939
0.00667031
0.00224467
0.00485872
0.00455795
0.00551033
0.00381995
0.00587596
0.00518957
0.00564363
0.00233117
0.00691324
0.00435714
0.00339323
0.0052285
0.00492643
0.00395331
0.00351919
0.00583713
0.00379372
0.0048926
0.00883338
0.0042112
0.00403385
0.00291238
0.00632797
0.00413701
0.00621795
0.00395768
0.00508883
0.00666253
0.00690361
0.00436143
0.00265813
0.00422405
0.00357361
0.00854944
0.00157202
0.003723
0.00557877
0.00561322
0.00322218
0.00461498
0.00650585
0.00256733
0.00452923
0.00239288
0.00138707
0.00552827
0.00455882
0.00791844
0.00771569
0.00715463
0.00572083
0.00493719
0.00241369
0.00895607
0.00493546
0.00397657
0.0044898
0.00645524
0.00627072
0.00453746
0.00657561
0.00658005
0.00507946
0.00494501
0.00476609
0.00691356
0.00345418
0.00463496
0.00274613
0.00668176
0.00580482
0.00644183
0.00446432
0.00341354
0.00458293
0.00227814
0.00616149
0.00406985
0.006554
0.00211621
0.00421214
0.00416304
0.00178687
0.00149754
0.0039398
0.00510242
0.00296217
0.00147695
0.00921287
0.00409001
0.00632292
0.0070931
0.00244186
0.0100558
0.00328408
0.00768068
0.00864799
0.00727658
0.00577553
0.0056512
0.00378541
0.00206153
0.00955454
0.00918547
0.00488834
0.00288809
0.00433406
0.00455352
0.00733175
0.00357035
0.00256987
0.0015168
0.00453496
0.00759886
0.00747293
0.00542711
0.00623477
0.00256073
0.00409368
0.00309139
0.00405545
0.00474351
0.00340108
0.00814927
0.00536759
0.00480927
0.00705335
0.00906446
0.00571602
0.00698949
0.00204
0.00335127
0.00157499
0.0044321
0.00559879
0.00565981
0.00423074
0.00377402
0.00789846
0.00821623
0.00730092
0.00322465
0.00155473
0.00145277
0.00299298
0.00696444
0.00550376
0.0064451
0.00459062
0.00454543
0.00579322
0.00514427
0.00481373
0.00632533
0.00370181
0.00565028
0.0040931
0.0116011
0.00629059
0.00280063
0.00500867
0.00786446
0.00553749
0.00147665
0.00270226
0.0055015
0.00677393
0.00408129
0.00739779
0.00550407
0.00874584
0.00713218
0.00482488
0.00490398
0.00493464
0.00503977
0.00391598
0.00465837
0.00450441
0.00571791
0.0110068
0.00965433
0.00570185
0.00240421
0.00325633
0.00348137
0.00516733
0.00414858
0.00614413
0.00664007
0.00787501
0.00838484
0.00481094
0.00152309
0.00236297
0.00222927
0.0052203
0.00586226
0.00839855
0.00762507
0.00792298
0.00728389
0.00477222
0.00459781
0.00746173
0.00394889
0.00354964
0.00275339
0.00254623
0.00165471
0.0013722
0.00542474
0.0061387
0.00602158
0.00187817
0.00920028
0.00394193
0.00153917
0.00877235
0.00276758
0.00441677
0.00688911
0.00578422
0.00152973
0.00582804
0.006131
0.00719499
0.00463158
0.00584698
0.00534438
0.003461
0.00652398
0.00554631
0.00676877
0.00836547
0.00407251
0.00502048
0.00521733
0.00640142
0.00329174
0.00528446
0.00293836
0.0103856
0.00473435
0.0104188
0.00337906
0.00720263
0.00496516
0.00753233
0.00300079
0.0052681
0.00375805
0.0023903
0.00542934
0.0062412
0.00697097
0.00370316
0.0047206
0.00517964
0.0014684
0.00325802
0.00697654
0.00475839
0.00156952
0.00352271
0.00689814
0.00376097
0.00987866
0.00170251
0.00454127
0.00427364
0.00295741
0.00435728
0.00497464
0.00748126
0.00546104
0.00285776
0.00674474
0.00287146
0.0103989
0.00169938
0.00149483
0.00291244
0.00764996
0.00220873
0.00707222
0.010405
0.00623825
0.00574651
0.00333824
0.0021112
0.00542871
0.00490125
0.00476935
0.00642368
0.00891582
0.00894266
0.00219153
0.00396206
0.00714301
0.00440941
0.00259688
0.00800739
0.00758458
0.00342717
0.00392305
0.00363568
0.00737657
0.00487646
0.00288677
0.00170678
0.00316535
0.00219786
0.00735907
0.00679764
0.00670162
0.00384763
0.00249095
0.00522083
0.00799736
0.00163401
0.00551804
0.00596053
0.00754656
0.00306457
0.00578129
0.00767272
0.00395446