/*--------------------------------*- C++ -*----------------------------------*\
| =========                 |                                                 |
| \\      /  F ield         | OpenFOAM: The Open Source CFD Toolbox           |
|  \\    /   O peration     | Version:  2212                                  |
|   \\  /    A nd           | Website:  www.openfoam.com                      |
|    \\/     M anipulation  |                                                 |
\*---------------------------------------------------------------------------*/
FoamFile
{
    version     2.0;
    format      ascii;
    arch        "LSB;label=32;scalar=64";
    class       volScalarField;
    location    "10";
    object      p;
}
// * * * * * * * * * * * * * * * * * * * * * * * * * * * * * * * * * * * * * //

dimensions      [0 2 -2 0 0 0 0];

internalField   nonuniform List<scalar> 
76335
(
-213.502
-181.491
-52.0245
-128.785
-156.108
-114.102
-89.9843
-132.809
-76.3294
-140.27
-190.115
-58.2768
-82.6509
-175.11
-131.122
-49.4362
-186.941
-175.711
-187.295
-93.0267
-177.932
-132.827
-174.462
-180.104
-150.542
-155.478
-220.211
-160.665
-154.002
-96.0841
-166.914
-176.708
-90.6
-160.897
-147.11
-164.459
-108.159
-189.445
-148.21
-98.0702
-171.282
-217.372
-159.761
-116.363
-100.721
-146.298
-145.054
-148.911
-166.437
-155.918
-90.2869
-138.593
-173.974
-138.208
-94.2584
-164.907
-158.047
-125.255
-141.58
-138.333
-145.615
-160.82
-157.703
-156.312
-153.265
-213.262
-172.066
-77.884
-100.601
-139.919
-190.829
-137.537
-183.869
-154.842
-105.117
-126.366
-202.285
-124.061
-218.499
-198.782
-162.863
-133.342
-120.088
-147.063
-162.906
-158.171
-121.213
-156.751
-120.57
-129.316
-63.4107
-177.907
-142.047
-190.267
-223.419
-155.894
-144.467
-191.436
-166.594
-120.382
-196.807
-207.326
-145.303
-158.899
-141.766
-92.4137
-46.9085
-136.796
-141.575
-131.468
-140.589
-198.632
-132.251
-168.448
-181.381
-152.12
-153.305
-198.492
-196.298
-58.5618
-79.605
-173.633
-131.203
-178.639
-148.222
-139.896
-59.4189
-141.597
-165.722
-191.552
-206.872
-162.627
-177.048
-95.2554
-145.1
-136.555
-171.075
-75.6142
-186.452
-127.742
-104.519
-139.714
-144.865
-175.688
-147.637
-139.636
-147.47
-175.79
-179.056
-154.421
-165.142
-109.1
-107.626
-85.075
-142.425
-81.8015
-84.0815
-136.848
-118.984
-123.593
-192.565
-225.798
-160.046
-71.6103
-113.165
-167.222
-166.49
-149.153
-138.02
-131.96
-165.881
-129.997
-139.127
-154.046
-209.56
-124.036
-121.322
-122.985
-169.422
-73.1235
-188.425
-184.118
-242.156
-164.494
-120.097
-153.876
-153.347
-199.129
-129.227
-233.833
-163.655
-101.888
-69.7091
-112.78
-174.078
-177.45
-174.611
-168.096
-89.3506
-98.7926
-151.582
-151.662
-133.196
-146.35
-180.385
-169.025
-114.003
-137.739
-169.956
-185.572
-181.53
-185.372
-204.427
-93.3427
-85.7109
-185.117
-149.224
-153.225
-138.269
-136.982
-134.828
-112.223
-181.538
-186.303
-159.309
-151.476
-217.834
-158.847
-189.844
-217.924
-194.502
-178.736
-149.688
-187.201
-100.904
-112.222
-175.811
-58.9551
-58.4032
-132.398
-144.672
-175.247
-165.111
-114.886
-110.585
-88.7888
-143.407
-161.316
-90.4871
-94.7269
-92.897
-142.966
-87.1246
-96.7903
-165.407
-76.4856
-88.7067
-63.2917
-98.2128
-59.0681
-140.654
-187.851
-124.654
-115.552
-129.577
-181.789
-49.0928
-104.414
-143.092
-149.058
-154.578
-138.174
-142.335
-165.799
-113.157
-172.724
-153.416
-132.796
-82.8416
-148.165
-183.187
-196.081
-89.6442
-86.9835
-123.198
-167.881
-143.896
-112.573
-119.486
-205.969
-198.125
-192.68
-184.812
-175.753
-206.24
-191.447
-146.738
-51.1822
-140.508
-130.57
-150.446
-178.12
-86.1587
-75.7392
-169.672
-120.839
-117.08
-204.246
-175.871
-154.277
-208.864
-55.7262
-185.558
-162.677
-109.578
-116.775
-146.51
-152.582
-114.544
-208.071
-198.041
-177.448
-106.593
-109.301
-200.442
-178.328
-139.521
-188.897
-62.2919
-222.008
-209.861
-161.476
-167.605
-182.626
-213.47
-174.31
-171.878
-178.376
-104.939
-161.576
-173.216
-206.841
-68.3458
-131.557
-149.728
-73.871
-153.259
-161.596
-116.386
-128.256
-122.011
-157.371
-176.466
-167.207
-169.926
-207.149
-102.645
-180.91
-118.93
-233.343
-159.062
-195.586
-132.107
-117.709
-90.6762
-149.239
-178.082
-137.339
-137.282
-185.742
-110.09
-110.876
-193.351
-89.7836
-168.64
-169.141
-132.718
-156.17
-148.383
-189.799
-134.409
-186.015
-147.013
-147.539
-195.054
-85.2282
-103.025
-88.258
-127.318
-128.244
-167.547
-213.938
-212.478
-148.326
-165.495
-163.661
-136.196
-155.153
-137.316
-153.027
-164.049
-171.513
-169.041
-155.785
-167.024
-114.314
-140.993
-141.748
-180.601
-182.66
-170.142
-142.573
-231.21
-205.909
-131.254
-92.8292
-118.313
-147.265
-195.277
-169.966
-218.959
-131.745
-140.046
-201.034
-181.867
-257.438
-156.304
-149.694
-104.063
-157.265
-192.291
-131.005
-127.764
-117.664
-142.159
-152.009
-100.388
-101.836
-132.119
-130.146
-131.173
-128.681
-202.317
-115.362
-107.518
-56.653
-163.851
-143.073
-201.268
-88.7103
-118.686
-73.5001
-95.3592
-149.419
-166.854
-159.507
-188.461
-101.337
-104.217
-70.9253
-141.931
-142.055
-118.643
-124.826
-232.231
-154.549
-192.377
-117.514
-128.518
-110.084
-161.838
-49.2609
-177.278
-68.6158
-130.382
-183.819
-158.451
-191.565
-193.251
-110.438
-77.9411
-156.331
-174.849
-173.169
-110.089
-208.428
-112.305
-124.569
-173.803
-131.057
-153.499
-171.555
-190.953
-190.891
-239.603
-76.6248
-76.9614
-125.277
-119.032
-134.148
-238.529
-250.813
-169.306
-165.759
-167.5
-160.341
-169.858
-170.084
-149.701
-171.558
-163.663
-161.214
-165.024
-174.889
-187.231
-186.398
-184.952
-138.095
-116.618
-143.894
-79.0483
-109.227
-166.898
-104.249
-101.005
-176.022
-124.064
-169.536
-179.516
-189.385
-70.5773
-85.3394
-105.629
-178.005
-191.711
-182.769
-79.9688
-173.316
-159.734
-131.101
-148.759
-173.799
-106.545
-165.454
-148.112
-146.955
-119.82
-152.95
-140.61
-154.172
-159.254
-140.106
-158.325
-144.443
-193.046
-136.558
-105.847
-143.195
-129.766
-190.108
-190.664
-132.628
-141.792
-184.232
-146.398
-148.355
-106.043
-111.695
-161.426
-99.6147
-110.103
-151.455
-152.734
-156.191
-103.677
-208.658
-209.408
-193.486
-140.718
-89.2434
-193.203
-182.526
-173.992
-108.748
-183.74
-218.5
-128.007
-122.602
-93.5918
-172.427
-160.864
-167.273
-212.397
-168.702
-161.457
-167.715
-212.738
-149.306
-160.349
-70.9066
-71.829
-182.621
-120.522
-198.075
-214.743
-107.101
-61.193
-172.183
-131.979
-191.244
-191.054
-154.667
-146.832
-184.923
-185.184
-178.393
-180.578
-163.494
-176.694
-86.2566
-140.984
-182.451
-184.361
-119.118
-173.563
-192.028
-184.044
-147.765
-189.344
-175.787
-130.527
-147.45
-124.872
-154.591
-147.313
-195.086
-138.398
-85.2008
-85.4284
-152.605
-110.208
-172.558
-189.057
-162.863
-88.7482
-169.148
-166.149
-169.018
-130.417
-89.8435
-96.009
-139.051
-113.45
-181.164
-147.98
-137.083
-76.2372
-128.733
-116.585
-186.643
-85.4343
-169.856
-155.176
-141.668
-135.886
-125.136
-118.761
-76.783
-119.954
-176.677
-180.971
-151.322
-131.969
-196.433
-205.91
-123.719
-125.168
-192.685
-130.9
-130.173
-227.91
-210.374
-155.476
-133.009
-192.181
-191.887
-129.295
-151.104
-108.273
-145.497
-107.091
-125.157
-85.979
-172.552
-114.567
-116.759
-123.447
-64.7986
-139.302
-196.534
-101.85
-178.317
-181.068
-146.066
-124.658
-153.467
-145.783
-152.031
-168.56
-198.224
-153.077
-155.397
-153.739
-162.137
-178.3
-164.454
-161.4
-235.41
-154.734
-152.201
-110.334
-128.999
-92.6474
-157.167
-73.5432
-161.219
-162.021
-156.223
-161.121
-100.149
-63.2263
-177.573
-128.039
-121.983
-156.77
-112.732
-156.68
-134.556
-134.776
-153.111
-143.424
-70.0006
-73.0265
-212.273
-191.863
-95.4862
-172.692
-104.66
-190.477
-182.501
-148.06
-165.084
-191.698
-161.497
-138.327
-159.29
-135.499
-135.511
-179.73
-97.0611
-68.953
-160.732
-223.13
-161.596
-92.1065
-85.4618
-87.4242
-82.1108
-155.414
-157.782
-47.7241
-71.5575
-171.021
-207.218
-161.634
-104.164
-104.162
-154.322
-110.198
-135.463
-189.974
-77.1781
-143.473
-178.456
-104.62
-171.245
-79.9935
-150.383
-104.014
-87.7214
-101.07
-194.641
-78.2229
-146.86
-138.991
-162.491
-129.718
-190.775
-191.989
-149.87
-74.619
-211.165
-92.7974
-182.608
-155.68
-162.534
-133.898
-145.781
-141.314
-151.792
-191.747
-185.995
-153.432
-212.382
-134.902
-191.987
-161.977
-171.517
-72.2785
-139.473
-192.764
-123.115
-148.396
-164.401
-108.983
-181.044
-195.366
-218.451
-159.63
-174.792
-178.023
-150.465
-96.7687
-96.437
-131.285
-93.9711
-112.23
-178.258
-174.962
-143.748
-177.175
-96.265
-137.542
-180.385
-118.592
-183.399
-126.325
-157.379
-191.14
-149.593
-156.616
-130.658
-135.464
-210.483
-214.54
-66.7585
-134.108
-132.837
-163.674
-125.118
-137.79
-146.232
-163.779
-179.259
-81.6008
-176.296
-191.965
-92.0737
-75.5447
-111.86
-182.781
-75.483
-143.409
-144.057
-65.895
-170.475
-154.214
-158.744
-75.9591
-189.168
-123.973
-221.993
-88.5584
-167.65
-132.811
-136.033
-106.318
-112.975
-162.535
-115.941
-176.077
-169.287
-91.9112
-124.197
-87.8281
-135.122
-159.533
-156.038
-100.89
-115.34
-170.551
-184.012
-155.61
-111.644
-166.905
-57.9423
-105.258
-211.179
-79.6765
-214.312
-126.439
-183.682
-83.5019
-234.955
-226.752
-127.955
-111.735
-95.448
-87.8311
-136.073
-62.4185
-115.263
-108.765
-138.83
-151.701
-95.393
-155.885
-137.898
-115.815
-124.509
-169.631
-208.158
-110.091
-135
-166.972
-80.3851
-132.255
-120.124
-192.759
-191.746
-148.094
-191.832
-169.403
-129.086
-185.365
-193.941
-164.063
-90.4921
-134.458
-120.281
-111.284
-133.774
-173.05
-175.431
-146.88
-146.806
-166.388
-171.041
-160.052
-199.569
-224.055
-197.252
-74.4478
-188.868
-127.208
-98.6241
-87.1709
-185.465
-138.471
-191.984
-163.516
-200.748
-154.228
-184.865
-135.678
-205.498
-131.943
-129.561
-185.011
-106.616
-137.395
-133.225
-161.898
-146.6
-161.981
-174.261
-135.251
-195.103
-149.571
-97.7042
-157.27
-122.014
-122.823
-143.733
-136.185
-97.6947
-115.385
-191.839
-203.133
-118.963
-135.49
-188.907
-191.361
-145.108
-132.21
-163.462
-183.514
-125.321
-130.171
-227.686
-149.272
-196.16
-67.3366
-70.6422
-72.8694
-58.7235
-58.8882
-190.648
-160.833
-128.286
-101.262
-170.182
-174.344
-111.506
-156.817
-183.568
-72.4052
-156.334
-190.088
-234.706
-166.568
-194.15
-173.522
-121.359
-72.3072
-143.83
-127.81
-96.5403
-59.527
-147.764
-143.475
-206.446
-80.2037
-120.421
-128.35
-134.329
-136.852
-134.214
-198.248
-151.432
-191.658
-191.455
-247.284
-226.801
-142.643
-126.033
-146.516
-203.681
-150.296
-148.977
-159.078
-165.373
-164.103
-195.452
-171.377
-164.282
-168.103
-136.951
-85.6326
-97.8311
-86.1029
-99.9235
-114.181
-181.899
-136.471
-144.75
-120.835
-173.084
-195.197
-208.454
-150.784
-109.497
-118.126
-174.474
-113.686
-232.919
-143.295
-126.55
-209.902
-90.3012
-91.9324
-230.04
-106.398
-176.175
-187.404
-154.043
-148.846
-158.958
-118.522
-129.425
-194.919
-135.957
-214.622
-144.981
-129.677
-206.408
-190.938
-188.676
-234.941
-161.618
-151.639
-138.587
-223.084
-172.233
-126.448
-91.4607
-149.582
-160.554
-156.408
-194.427
-194.981
-60.0901
-122.242
-127.625
-199.067
-159.149
-181.996
-157.802
-151.353
-158.113
-146.477
-123.444
-89.4286
-200.499
-187.617
-160.476
-155.303
-155.916
-227.466
-230.09
-202.948
-185.781
-163.586
-154.664
-83.9205
-190.514
-197.697
-183.242
-58.9849
-85.3224
-76.723
-103.633
-148.82
-139.174
-168.172
-99.4569
-139.09
-113.876
-94.8924
-191.222
-186.858
-147.8
-157.473
-116.613
-118.836
-141.216
-121.077
-135.429
-217.435
-178.165
-86.2053
-191.396
-183.6
-205.172
-123.906
-130.581
-164.598
-207.837
-185.731
-145.001
-158.967
-142.356
-222.485
-116.697
-185.906
-196.841
-161.845
-96.2071
-150.234
-91.3957
-183.472
-155.502
-188.19
-158.976
-162.714
-207.727
-124.94
-165.897
-146.248
-128.558
-135.873
-158.153
-220.845
-121.002
-138
-125.254
-196.488
-93.9062
-161.886
-124.247
-155.207
-174.524
-145.272
-155.322
-189.175
-137.502
-138.698
-158.721
-95.6779
-161.048
-105.333
-100.809
-159.852
-124.08
-199.132
-174
-87.2503
-143.749
-121.948
-115.922
-156.063
-205.154
-81.6645
-163.858
-92.7258
-194.362
-193.721
-191.029
-195.142
-199.532
-73.15
-126.662
-158.72
-191.884
-183.913
-178.67
-132.034
-192.339
-122.175
-122.595
-143.779
-151.539
-173.485
-94.8559
-162.292
-174.502
-185.521
-183.647
-160.532
-144.923
-180.716
-81.4882
-179.871
-56.0821
-163.283
-124.587
-111.745
-114.963
-60.9876
-151.211
-145.717
-115.379
-161.444
-164.803
-253.393
-127.483
-129.327
-211.267
-147.165
-129.007
-138.323
-112.038
-152.218
-117.737
-234.215
-189.431
-98.0677
-138.865
-184.996
-132.189
-143.194
-157.283
-151.356
-153.53
-163.681
-99.995
-158.469
-107.808
-210.709
-159.968
-97.3746
-143.781
-157.256
-132.935
-146.701
-147.386
-155.733
-134.467
-172.172
-192.234
-74.7635
-149.477
-144.686
-170.609
-54.8691
-121.252
-148.666
-169.369
-146.726
-147.391
-153.11
-182.909
-175.621
-166.884
-248.594
-238.094
-196.836
-140.677
-111.071
-125.553
-62.2531
-85.2581
-183.127
-153.567
-156.057
-177.68
-163.286
-161.451
-204.376
-196.957
-190.126
-130.835
-176.382
-129.509
-168.802
-220.28
-147.887
-123.88
-73.7283
-87.3704
-84.9818
-76.062
-225.975
-188.971
-154.8
-165.404
-162.832
-157.014
-177.888
-159.831
-236.093
-86.4305
-138.961
-204.264
-133.285
-167.85
-144.652
-204.526
-210.485
-135.929
-172.576
-172.929
-207.974
-139.049
-140.598
-136.045
-124.099
-159.567
-220.209
-125.66
-143.653
-171.964
-116.496
-109.025
-89.642
-155.644
-94.8382
-100.422
-145.526
-79.0154
-72.8779
-207.46
-90.3174
-132.354
-134.018
-100.432
-170.425
-137.694
-148.969
-164.012
-163.561
-161.321
-148.335
-193.156
-147.99
-187.244
-203.509
-75.9526
-188.962
-151.477
-145.839
-133.858
-152.679
-139.358
-188.142
-62.4141
-184.39
-130.874
-131.813
-117.285
-152.067
-150.575
-140.521
-139.968
-125.234
-143.565
-141.603
-146.409
-103.103
-76.6302
-156.559
-155.339
-139.013
-149.084
-154.623
-188.289
-202.98
-180.627
-150.401
-191.501
-155.26
-149.596
-156.513
-153.574
-154.153
-145.99
-143.576
-219.126
-237.916
-186.77
-169.232
-101.771
-195.12
-140.22
-79.6489
-144.47
-146.646
-135.565
-196.184
-206.991
-191.516
-193.055
-202.18
-200.963
-128.239
-139.13
-221.822
-190.256
-158.763
-183.653
-127.571
-133.304
-125.613
-199.435
-80.882
-165.098
-156.893
-150.296
-138.909
-133.561
-74.6122
-85.5835
-145.853
-137.409
-200.294
-169.408
-144.168
-72.3149
-133.346
-127.525
-141.023
-152.438
-190.818
-106.887
-101.323
-179.778
-162.448
-153.612
-99.292
-75.7655
-136.703
-156.524
-194.654
-203.756
-88.7556
-158.304
-126.663
-102.544
-150.703
-150.618
-109.129
-101.051
-156.402
-172.886
-163.953
-134.302
-159.847
-150.256
-135.617
-142.129
-134.754
-175.235
-181.149
-134.839
-108.234
-134.587
-135.578
-191.056
-78.1335
-209.531
-54.4271
-114.629
-154.763
-136.507
-122.121
-187.951
-124.174
-180.34
-211.04
-114.447
-142.344
-223.904
-138.651
-191.042
-192.464
-192.897
-189.969
-165.425
-199.709
-202.795
-143.442
-131.689
-127.196
-138.298
-131.53
-146.254
-138.737
-179.701
-71.3086
-122.552
-192.952
-195.775
-116.254
-137.786
-201.255
-160.652
-216.962
-214.147
-119.904
-184.247
-86.7764
-85.8205
-157.342
-123.82
-145.145
-190.646
-176.669
-182.711
-163.1
-167.726
-162.202
-137.577
-137.116
-172.235
-205.35
-193.799
-89.6259
-124.433
-121.273
-191.344
-231.408
-154.175
-200.35
-148.871
-180.432
-89.6113
-103.011
-111.963
-169.486
-165.144
-96.3628
-163.946
-143.048
-170.666
-143.926
-178.463
-192.063
-192.832
-133.659
-230.724
-141.409
-201.556
-203.052
-208.547
-208.45
-223.885
-151.37
-193.763
-235.328
-213.925
-133.288
-188.251
-128.785
-132.03
-93.3934
-66.2956
-138.636
-149.683
-144.616
-143.781
-92.8356
-211.229
-244.646
-167.303
-160.243
-189.887
-139.831
-233.522
-213.67
-68.9401
-156.508
-163.041
-155.788
-125.073
-144.511
-215.093
-170.187
-129.88
-142.302
-160.976
-64.8919
-209.4
-140.974
-150.919
-105.45
-99.0549
-191.256
-175.577
-129.469
-144.009
-69.4493
-148.539
-214.672
-163.558
-146.871
-146.805
-209.229
-123.308
-137.569
-179.463
-104.667
-131.797
-146.931
-141.802
-181.036
-165.809
-175.65
-166.985
-239.413
-140.05
-157.794
-171.015
-124.298
-149.722
-169.261
-175.525
-141.964
-77.4618
-158.305
-192.913
-132.407
-153.334
-226.12
-76.9569
-159.997
-157.541
-150.404
-132.469
-203.087
-155.482
-123.714
-131.249
-189.946
-191.888
-208.465
-209.171
-148.59
-142.375
-72.901
-142.864
-125.618
-117.55
-78.9034
-133.459
-144.023
-146.33
-153.717
-161.91
-146.175
-176.677
-192.405
-129.614
-151.468
-186.163
-216.702
-214.372
-161.625
-168.548
-98.1526
-46.6919
-152.16
-163.424
-187.73
-143.208
-111.608
-152.153
-182.291
-156.754
-170.152
-141.278
-179.295
-140.362
-154.013
-213.721
-232.239
-67.5861
-64.1938
-83.401
-100.025
-160.469
-162.05
-207.21
-88.9835
-142.771
-196.056
-111.853
-82.3845
-126.953
-121.915
-110.889
-96.41
-89.9617
-133.356
-69.5043
-143.767
-125.308
-138.337
-191.518
-120.173
-102.02
-90.362
-227.073
-191.439
-159.788
-144.269
-215.239
-196.69
-117.54
-195.098
-188.321
-188.532
-149.05
-179.458
-71.3819
-172.671
-174.761
-200.977
-95.1912
-55.5684
-51.8229
-94.7545
-191.115
-55.9109
-135.846
-167.699
-191.135
-167.329
-189.657
-194.929
-100.376
-171.964
-148.653
-120.836
-85.6173
-160.705
-169.975
-216.08
-119.328
-110.298
-138.676
-134.72
-140.917
-71.9905
-84.9739
-140.129
-161.387
-152.337
-102.751
-159.489
-134.756
-152.62
-71.7555
-177.898
-168.5
-95.6579
-185.849
-134.892
-137.912
-126.958
-188.496
-159.765
-175.493
-50.6109
-156.759
-126.222
-126.417
-144.891
-157.639
-113.021
-127.341
-62.3769
-68.2133
-79.5295
-137.622
-160.064
-120.813
-131.2
-172.713
-175
-187.236
-201.425
-137.797
-129.645
-191.854
-142.112
-140.838
-174.476
-189.487
-63.9012
-129.543
-206.226
-209.909
-146.228
-128.064
-160.326
-78.6322
-166.866
-180.547
-179.305
-219.987
-120.567
-172.204
-147.388
-191.203
-116.703
-183.922
-191.533
-117.401
-140.253
-141.556
-111.295
-91.25
-99.5811
-148.683
-179.192
-119.376
-156.211
-177.497
-163.904
-205.419
-162.201
-73.3096
-81.3056
-191.005
-158.651
-182.832
-118.618
-101.853
-117.086
-152.224
-180.122
-179.033
-192.473
-139.581
-161.523
-154.354
-201.311
-117.405
-164.779
-167.053
-135.611
-178.713
-101.567
-163.472
-133.589
-220.641
-67.4816
-187.074
-119.454
-113.911
-182.861
-135.232
-194.769
-193.632
-194.328
-193.819
-46.4905
-211.671
-198.665
-129.526
-120.4
-214.731
-89.6493
-186.691
-173.051
-105.783
-133.422
-169.702
-152.355
-141.292
-109.275
-100.028
-211.893
-119.216
-185.062
-145.672
-199.447
-212.612
-80.4008
-206.373
-121.312
-169.407
-150.076
-144.442
-202.44
-203.933
-203.315
-185.466
-200.51
-145.832
-169.133
-150.242
-154.116
-203.265
-143.425
-184.624
-178.023
-190.009
-199.947
-187.08
-187.694
-133.141
-72.1814
-72.2758
-190.174
-147.32
-135.211
-100.958
-125.402
-184.734
-143.839
-162.59
-200.768
-137.846
-143.261
-94.1727
-188.455
-190.39
-209.586
-190.029
-89.832
-97.8805
-194.896
-73.259
-192.993
-148.128
-143.693
-83.2087
-132.266
-113.463
-94.7966
-134.986
-124.308
-145.71
-143.327
-144.412
-152.298
-155.687
-148.803
-154.794
-114.775
-121.117
-124.038
-219.025
-121.718
-173.124
-97.2134
-71.4269
-140.193
-152.378
-152.555
-193.66
-202.028
-202.685
-209.419
-156.702
-175.462
-167.947
-159.108
-155.046
-221.083
-174.309
-190.853
-178.306
-151.993
-103.933
-168.792
-186.109
-194.489
-203.897
-44.8096
-131.886
-112.795
-205.114
-135.182
-163.026
-232.164
-155.093
-119.71
-148.857
-165.644
-138.673
-143.908
-66.0758
-134.418
-69.2512
-142.049
-182.582
-119.837
-128.202
-179.955
-168.601
-165.653
-180.351
-141.379
-102.912
-223.21
-112.495
-222.094
-142.663
-172.829
-164.143
-145.013
-158.607
-160.849
-82.117
-196.196
-179.079
-141.408
-161.863
-60.9813
-102.495
-164.965
-96.3611
-99.1431
-61.2579
-56.3286
-107.161
-94.4428
-96.2198
-100.042
-142.857
-218.19
-222.904
-164.908
-165.902
-179.523
-170.097
-180.206
-164.505
-134.455
-181.553
-172.801
-124.576
-139.96
-162.225
-125.516
-115.646
-182.006
-108.425
-119.517
-148.736
-126.639
-144.158
-202.374
-216.322
-134.184
-68.5266
-168.755
-64.9387
-118.355
-213.436
-169.815
-228.443
-205.841
-168.216
-104.308
-189.486
-193.014
-152.642
-128.834
-132.827
-154.476
-219.135
-130.275
-232.965
-161.14
-171.008
-142.839
-147.912
-169.425
-50.7738
-106.811
-207.957
-122.153
-111.912
-190.482
-150.66
-64.7363
-188.152
-160.206
-155.347
-96.9941
-128.892
-95.2285
-94.0248
-196.304
-169.351
-96.9579
-103.632
-199.172
-152.574
-139.582
-169.672
-230.92
-166.685
-177.609
-171.095
-127.846
-167.8
-61.6481
-153.709
-177.895
-146.549
-140.765
-99.2088
-188.966
-182.139
-191.673
-178.45
-172.549
-207.264
-181.485
-52.5468
-130.279
-156.713
-114.039
-89.8155
-134.079
-76.1284
-138.008
-183.308
-58.6346
-81.3514
-175.28
-134.415
-49.9204
-186.817
-175.648
-187.201
-92.6751
-171.455
-134.284
-175.223
-177.023
-150.183
-154.954
-220.772
-165.441
-159.195
-96.5258
-167.354
-176.682
-89.4426
-159.415
-148.223
-162.719
-108.359
-189.432
-149.946
-96.9242
-177.076
-217.758
-164.652
-117.41
-99.639
-147.377
-145.156
-148.268
-164.223
-154.709
-88.9107
-140.241
-177.952
-138.491
-94.6024
-162.612
-155.307
-125.892
-143.489
-137.522
-144.867
-160.393
-160.673
-160.709
-156.634
-215.984
-172.162
-77.7097
-101.415
-139.648
-190.836
-138.706
-189.374
-154.292
-109.04
-126.228
-200.273
-121.966
-213.933
-199.63
-163.703
-133.618
-122.962
-148.334
-165.655
-154.878
-121.313
-158.34
-120.165
-128.924
-63.9344
-177.754
-142.981
-194.712
-215.043
-156.453
-144.951
-191.375
-166.691
-117.065
-196.738
-202.571
-145.763
-160.088
-134.511
-93.7928
-47.2886
-140.608
-142.496
-132.683
-141.236
-196.523
-132.524
-166.067
-181.413
-153.972
-153.732
-197.168
-196.619
-62.6625
-82.0156
-170.347
-131.595
-178.501
-151.205
-144.208
-63.2383
-139.956
-163.413
-187.158
-199.013
-165.568
-177.023
-92.2989
-145.233
-134.887
-168.916
-79.1112
-193.797
-126.896
-104.152
-139.565
-144.083
-173.467
-148.335
-137.583
-146.808
-180.841
-181.897
-155.871
-162.128
-109.211
-106.903
-82.687
-138.707
-82.7107
-83.3452
-135.633
-120.857
-124.614
-193.279
-214.769
-159.836
-73.6809
-113.076
-165.199
-166.859
-148.318
-141.04
-133.258
-168.215
-129.768
-139.815
-151.777
-209.099
-118.747
-123.632
-123.587
-167.851
-73.1725
-188.477
-184.136
-234.492
-164.494
-119.651
-153.738
-154.637
-194.428
-130.418
-230.789
-162.797
-101.418
-67.5355
-112.29
-175.041
-177.056
-174.695
-167.273
-91.8865
-98.8126
-152.172
-150.494
-131.435
-144.17
-178.993
-169.48
-115.98
-136.802
-170.447
-185.574
-180.488
-190.053
-207.598
-92.3564
-85.4401
-183.094
-152.866
-156.796
-139.238
-139.445
-134.656
-111.289
-183.295
-186.02
-157.784
-150.159
-217.656
-161.751
-189.871
-204.341
-194.493
-176.601
-149.429
-187.452
-98.681
-112.431
-180.234
-61.2803
-60.8779
-134.888
-144.788
-175.244
-166.791
-115.735
-110.116
-90.664
-143.082
-161.408
-88.1128
-91.9735
-90.6796
-143.636
-88.9488
-94.9378
-164.735
-77.2727
-90.3276
-63.3383
-99.7043
-61.1936
-140.459
-187.852
-123.997
-114.011
-129.347
-181.554
-55.1185
-102.088
-141.437
-147.534
-156.725
-136.914
-143.54
-168.217
-113.061
-172.725
-154.413
-133.526
-82.5321
-147.638
-186.427
-195.587
-84.8484
-86.7058
-125.935
-167.597
-145.888
-110.414
-117.799
-202.619
-197.569
-192.683
-182.545
-174.47
-203.767
-190.731
-146.96
-57.2294
-144.337
-132.182
-151.281
-175.785
-86.9132
-76.7778
-170.151
-121.198
-117.517
-197.943
-176.021
-149.771
-212.018
-60.5735
-184.841
-166.462
-108.273
-114.646
-152.271
-155.309
-116.828
-207.467
-200.603
-177.447
-104.666
-107.217
-203.498
-178.359
-139.443
-191.36
-64.2371
-220.748
-213.026
-160.709
-167.987
-180.469
-206.611
-173.787
-170.867
-178.465
-101.198
-162.234
-178.469
-205.179
-68.2859
-130.793
-155.23
-76.9304
-160.919
-161.181
-118.961
-129.678
-122.356
-157.206
-178.666
-173.733
-168.481
-201.585
-101.269
-180.943
-118.146
-227.023
-159.683
-195.579
-132.252
-119.337
-89.5421
-147.301
-178.048
-136.591
-138.093
-185.784
-110.287
-110.287
-194.06
-90.1218
-163.569
-170.64
-132.13
-160.053
-148.552
-189.787
-135.948
-189.886
-149.132
-152.059
-198.577
-87.1817
-101.733
-83.0652
-129.663
-128.69
-166.87
-208.78
-207.646
-152.684
-170.383
-163.139
-134.108
-154.724
-134.828
-153.767
-163.535
-173.941
-168.387
-156.931
-167.781
-112.276
-141.467
-143.858
-180.622
-182.754
-169.264
-149.483
-226.384
-207.938
-135.615
-92.2209
-119.132
-148.094
-195.271
-172.37
-218.277
-133.513
-140.357
-197.149
-186.038
-245.75
-156.69
-156.33
-103.168
-157.104
-190.519
-133.322
-129.57
-107.807
-143.271
-153.233
-100.497
-102.42
-129.837
-131.526
-130.732
-129.42
-200.853
-115.451
-105.542
-60.2531
-159.718
-141.083
-197.973
-89.7716
-114.547
-74.197
-92.7821
-151.21
-165.594
-159.906
-188.342
-100.389
-106.34
-71.8837
-141.469
-141.814
-118.031
-125.845
-226.836
-152.495
-192.39
-120.177
-129.795
-103.63
-163.307
-50.0347
-177.329
-69.6761
-127.41
-183.624
-159.354
-191.57
-193.255
-110.397
-74.0942
-156.183
-173.478
-179.75
-112.191
-206.319
-110.203
-122.268
-175.267
-134.004
-151.386
-170.42
-190.832
-190.795
-230.358
-80.4528
-77.2128
-124.896
-118.741
-126.671
-234.636
-240.952
-167.641
-165.767
-164.277
-157.484
-168.27
-167.368
-150.553
-168.779
-163.356
-163.031
-169.644
-172.073
-189.063
-186.556
-184.702
-138.661
-118.123
-142.377
-78.8471
-105.578
-167.264
-102.63
-99.7613
-171.947
-126.803
-170.063
-178.495
-189.301
-71.2224
-86.4213
-102.91
-175.053
-186.956
-186.746
-81.3597
-173.257
-159.753
-134.836
-150.294
-173.097
-104.884
-168.119
-150.997
-147.767
-119.141
-155.756
-144.94
-154.75
-159.732
-141.984
-157.666
-144.557
-193.07
-137.211
-103.42
-144.202
-129.616
-190.092
-190.57
-134.124
-140.885
-184.474
-147.26
-151.295
-107.055
-108.102
-164.07
-101.997
-112.351
-152.959
-153.228
-155.956
-100.32
-212.205
-211.123
-197.338
-144.326
-89.5607
-191.032
-181.685
-174.316
-105.134
-183.839
-214.845
-128.726
-125.324
-93.1835
-171.178
-160.533
-169.715
-203.062
-167.068
-166.2
-174.869
-213.794
-150.125
-161.577
-72.0946
-73.1268
-182.654
-120.705
-193.675
-216.499
-106.429
-64.8862
-168.699
-132.65
-191.17
-191.016
-154.553
-148.088
-184.892
-184.973
-176.964
-180.661
-171.779
-176.561
-81.0946
-140.775
-182.428
-186.754
-118.825
-168.752
-186.54
-183.981
-148.311
-188.216
-169.486
-130.937
-149.511
-125.134
-154.994
-147.271
-195.073
-137.755
-79.9244
-82.5311
-152.71
-110.254
-173.726
-189.043
-164.965
-85.5472
-169.161
-165.999
-168.629
-132.137
-89.505
-95.5734
-139.001
-115.305
-181.626
-152.363
-138.219
-75.9753
-128.411
-118.041
-182.327
-85.7066
-170.647
-154.912
-138.934
-135.768
-126.268
-117.516
-75.6251
-120.01
-175.397
-179.295
-151.486
-132.741
-193.441
-206.311
-125.46
-123.537
-190.362
-132.867
-125.756
-219.767
-208.001
-153.412
-133.122
-192.086
-191.759
-129.555
-151.081
-107.408
-142.852
-107.358
-122.003
-85.6696
-174.663
-116.581
-115.836
-119.673
-65.9455
-138.618
-197.832
-102.344
-183.576
-185.051
-147.944
-125.266
-153.618
-146.058
-152.711
-166.662
-199.523
-154.025
-156.073
-160.734
-163.444
-178.243
-164.945
-160.478
-225.854
-155.222
-154.968
-110.238
-128.118
-93.0841
-157.432
-75.7288
-162.611
-162.102
-158.78
-162.501
-100.069
-66.484
-177.411
-127.893
-123.928
-160.812
-111.775
-151.304
-137.714
-133.713
-152.999
-140.893
-68.1067
-70.6111
-203.254
-190.094
-95.6843
-171.06
-99.4157
-190.514
-183.987
-151.592
-165.19
-191.553
-158.277
-139.124
-159.139
-136.475
-135.57
-182.156
-96.8611
-70.2701
-160.544
-223.075
-161.623
-92.2252
-85.406
-91.8882
-82.0451
-155.274
-155.385
-49.4138
-75.8056
-167.486
-209.165
-162.435
-106.84
-104.484
-154.334
-109.944
-136.422
-189.982
-78.2863
-143.519
-183.943
-101.677
-171.356
-80.2593
-151.177
-105.285
-91.2291
-102.67
-200.814
-78.2376
-147.935
-140.62
-167.507
-132.66
-190.785
-192.002
-145.65
-75.433
-210.001
-93.6323
-182.624
-156.145
-163.007
-136.961
-145.82
-140.827
-151.631
-191.615
-185.998
-154.408
-214.267
-132.824
-189.909
-165.841
-170.8
-72.7095
-139.77
-194.381
-124.372
-153.241
-162.334
-103.699
-184.261
-192.714
-216.908
-159.642
-175.75
-178.187
-153.427
-95.9139
-98.2511
-124.249
-97.6149
-110.858
-178.176
-174.931
-143.806
-177.243
-99.0442
-137.977
-180.412
-110.905
-179.474
-128.002
-154.954
-196.169
-148.523
-155.782
-131.534
-137.694
-208.407
-210.969
-65.0809
-135.139
-133.799
-163.436
-128.909
-137.202
-145.689
-164.682
-177.215
-83.1583
-171.553
-191.973
-88.8444
-77.9753
-111.138
-182.849
-74.6316
-146.246
-144.438
-63.8558
-169.716
-155.421
-158.292
-73.7087
-185.52
-124.603
-212.192
-92.3168
-168.054
-136.238
-136.288
-107.186
-103.834
-159.896
-113.952
-176.111
-169.515
-90.7364
-124.926
-87.642
-136.051
-159.798
-156.178
-102.008
-114.776
-173.235
-182.556
-158.175
-111.052
-172.18
-60.6861
-105.365
-207.387
-80.3553
-217.098
-127.729
-183.382
-84.5293
-228.534
-224.654
-128.626
-110.129
-94.7952
-88.0806
-136.952
-62.2097
-114.909
-108.01
-139.017
-153.469
-91.522
-158.997
-139.603
-115.005
-124.746
-169.309
-206.254
-108.137
-134.154
-158.88
-80.7196
-132.375
-120.159
-192.537
-191.677
-149.539
-191.721
-173.642
-126.587
-184.75
-189.259
-164.285
-89.8557
-131.577
-119.929
-111.174
-132.846
-173.676
-176.25
-146.177
-146.127
-162.067
-172.066
-164.253
-199.238
-222.512
-196.193
-70.6676
-188.868
-126.3
-97.6262
-87.6914
-185.483
-138.317
-192.129
-164.279
-201.955
-162.256
-178.872
-138.75
-200.615
-134.477
-122.72
-185.031
-105.981
-135.623
-133.909
-160.177
-148.562
-161.294
-176.892
-135.65
-195.092
-150.252
-99.512
-158.202
-123.146
-122.6
-145.396
-140.494
-95.7716
-115.892
-190.017
-199.897
-120.347
-136.682
-188.928
-191.266
-145.042
-134.042
-163.168
-183.507
-126.42
-130.345
-215.231
-151.206
-189.243
-67.9323
-69.5057
-71.4389
-62.61
-62.8512
-190.586
-164.543
-130.762
-99.4861
-175.481
-177.336
-112.949
-156.593
-181.229
-75.6873
-154.727
-190.106
-228.481
-165.236
-194.161
-174.367
-119.042
-74.3138
-145.384
-122.766
-94.4921
-59.2225
-148.157
-143.972
-201.109
-80.3322
-122.822
-129.364
-134.47
-136.943
-132.834
-194.185
-155.374
-191.668
-191.477
-229.711
-217.758
-143.02
-127.75
-146.513
-198.125
-151.43
-148.521
-155.506
-161.247
-163.777
-195.443
-169.321
-164.002
-165.322
-137.668
-85.809
-97.477
-84.4438
-90.756
-114.119
-181.656
-136.813
-147.846
-119.785
-169.45
-191.123
-203.605
-151.123
-111.303
-121.439
-175.369
-115.553
-228.513
-143.706
-126.529
-206.558
-91.7375
-92.8941
-228.8