/*--------------------------------*- C++ -*----------------------------------*\
| =========                 |                                                 |
| \\      /  F ield         | OpenFOAM: The Open Source CFD Toolbox           |
|  \\    /   O peration     | Version:  2212                                  |
|   \\  /    A nd           | Website:  www.openfoam.com                      |
|    \\/     M anipulation  |                                                 |
\*---------------------------------------------------------------------------*/
FoamFile
{
    version     2.0;
    format      ascii;
    arch        "LSB;label=32;scalar=64";
    class       surfaceScalarField;
    location    "10";
    object      phi;
}
// * * * * * * * * * * * * * * * * * * * * * * * * * * * * * * * * * * * * * //

dimensions      [0 3 -1 0 0 0 0];

oriented        oriented;

internalField   nonuniform List<scalar> 
187239
(
0.00636609
-0.00356061
-0.00298345
0.000165452
-0.00289191
0.00775614
-0.0049749
0.000101292
-0.0110043
0.0064589
0.0100563
-0.00560814
-0.00035635
0.00275183
-0.00251547
0.000139487
-0.00733574
0.00663406
0.0019766
-0.00131357
-0.0170045
0.00503686
0.0122222
-0.000275231
-0.019192
0.00328954
0.0146299
0.00188501
-0.00427896
0.00283343
0.00141509
3.06157e-05
-0.0253135
0.0068498
-0.00064361
-0.00300149
-0.00140207
0.000127904
-0.00299494
0.00719621
-0.00443514
0.00026415
-0.0339139
0.0287932
0.00275968
0.00305024
0.00472342
0.00854646
-0.0280269
0.033208
-0.0053515
-7.77284e-06
0.00238938
-0.00488135
0.00369805
-0.00116948
-0.0201511
0.00262137
-0.00522879
-0.00378239
0.00886505
0.000113144
0.00343707
-0.0326995
0.00105754
0.000882526
-0.00619824
3.04752e-05
-0.000501751
0.00279454
-0.00192916
-0.000354981
0.00185593
-0.0052654
0.000457301
0.00241743
-0.00291245
0.000152908
0.00466248
-0.00239034
-0.00157611
-0.000716184
0.00199249
0.00316484
-0.000524252
-0.00247724
0.00269876
-0.000255274
3.53835e-05
-0.000792249
-0.00175816
7.36991e-05
0.0122784
-0.00731214
-0.0034153
-0.00152769
-0.00268463
0.00350216
-0.000155581
-0.000669806
0.000362389
-0.00248776
-0.000565249
0.00252496
-0.00271321
-0.000315654
-0.00482021
-0.00228426
0.007203
-0.000127736
-0.0378676
0.0158147
0.0242545
-0.000927688
0.00524393
-0.00531495
0.000599971
-0.000356944
-0.00555858
-0.000721762
0.00641875
-0.000132105
0.00149689
-0.00593681
-0.00109375
-0.00406678
-0.00545027
0.00919948
0.000518175
0.00232985
0.00414348
-0.000711531
-0.0358108
0.0309739
0.00473908
-7.21545e-05
-0.00620423
0.00316467
-0.00119828
-0.00309994
0.000412895
0.00253112
0.000157941
0.00496731
-0.000269254
-0.00387929
-0.000828988
-0.00213747
-0.000614072
0.00274538
1.30937e-05
-0.00115981
-0.00200156
0.00426775
-0.00107997
-0.00327321
0.000744598
0.00342396
-0.000902254
-0.00326039
-1.51246e-06
0.000165837
0.00950579
-0.00723435
-0.00163332
-0.000718257
-0.00769068
-0.000666435
0.00755884
0.000745836
0.00657354
0.00268704
0.000442909
0.00226457
0.00474686
-0.00897766
0.00188519
0.00759142
0.00122768
0.00228664
-0.00341168
0.00050426
0.000623332
-0.00187403
-0.00227699
-0.000545175
0.00164051
0.00237068
-0.00328414
-0.000735607
0.00208398
-0.00298908
0.000903405
-3.23453e-05
-0.00169996
0.00297586
-0.00112833
-0.000171898
-0.00255691
0.0020377
-0.000261707
0.000816317
-0.00222849
-0.000196519
-7.77478e-05
-0.00222597
-0.00159336
0.00415826
-0.000324013
0.000660499
-0.00769338
-0.000713528
-0.00287894
0.000989834
7.40103e-06
0.0192926
-0.03308
0.00868234
0.00499485
-0.00188338
0.00142796
-0.000337617
-0.00223385
0.000477559
0.00265806
-0.000930691
-0.00294763
0.00165122
-0.000961797
-0.00212463
-0.000471833
0.000571291
-0.00260872
-8.8337e-05
-0.0138931
-0.0237317
-0.000278595
0.00505233
-0.0122831
0.0102645
-0.00279897
-0.00061383
0.0037538
-0.000624315
-0.00778151
0.00535183
0.000526415
0.00202452
-0.0147009
-0.0144233
2.66826e-05
-0.00233671
0.00468669
3.9664e-05
0.00286576
-0.00318962
0.000671824
-0.000357645
0.000820826
-0.00216431
0.00144788
-3.29805e-05
0.00579989
0.000849673
-0.00565014
-0.00104472
-0.0041212
0.00285714
0.00161938
-0.000314066
0.00507679
0.000566225
-0.00505015
-0.000577882
-0.0033076
-0.000717757
-6.27442e-05
0.00426548
0.000655888
0.0001794
-0.000448352
0.00333489
-0.00329512
0.00041195
-0.00157114
0.0028211
-0.000388728
-0.00778641
0.0275767
8.30591e-05
0.00412991
-0.00143098
-0.00217517
-0.00050369
-0.00684748
0.00012192
0.00150582
0.00166615
-0.00301026
-0.000163923
0.00873888
-0.00354214
-0.00473176
-0.000460134
0.00572162
-0.000685862
0.000683636
-0.00323814
0.0033819
0.000571125
-0.000707942
-0.0185674
0.0016118
4.34121e-05
-0.00389865
-0.0155435
0.000937525
-0.00333254
0.000544677
0.00268573
9.19319e-05
-0.00721666
0.00427155
4.38174e-05
0.0026354
0.00329076
-0.00621534
0.00025629
-0.00323982
0.00567759
-0.00102966
-0.00142524
0.00115837
-0.00560217
0.00345166
0.000952054
-0.00346865
0.00744422
-0.0039732
-5.80017e-05
0.00749294
-0.00478486
-3.53635e-05
0.00600696
0.00768411
-0.0135661
-9.49803e-05
0.000763311
0.00611658
-0.00663027
-0.00026031
-0.00354946
-0.000237133
0.000509753
0.00474809
-0.002894
-0.00165079
-0.000205689
0.00228905
0.00132693
0.00112629
-0.00468144
-0.000671733
0.00557669
-0.00027811
-0.0080174
0.00367629
-0.000470833
0.0076334
0.000505643
0.000585524
0.00112155
-0.0023851
-0.000459104
0.00936351
-0.00607662
-0.00401532
0.00188795
0.0024635
-0.000338301
-0.00164675
0.000470749
0.00575384
0.00146189
-0.00684654
-0.000321923
-0.00367845
0.00949759
-3.17899e-05
0.00305416
0.00200027
-0.000110084
-0.000628213
0.00483737
-0.00515654
0.000836745
-0.00167809
-0.00108943
0.00028214
-0.00563224
0.00749156
-0.00153363
-0.000310676
-0.00919158
0.00550524
0.00411549
-0.000491191
-0.00209186
-0.000791097
-0.000350634
0.000205307
-0.00315371
6.0371e-05
0.00403681
-0.003697
-0.000134373
-0.00333724
0.00647957
-0.00276638
-0.000374215
-0.00513844
0.00818299
-0.00210999
-0.000878895
-0.00245262
0.00370089
-0.00144167
0.000196869
-0.00786622
0.00903616
-0.0010152
-0.000179064
-0.00714481
0.00930026
-0.0025599
0.00029341
-0.00481543
-0.00332219
-0.00105879
0.00131761
0.00249163
-0.00331854
-0.000499247
-0.00567394
0.00676096
-0.000977452
-0.000115824
-0.00636973
0.00434795
0.00142931
0.00262191
-0.00739014
0.00336689
0.00145516
-0.0024264
0.00375031
-0.00130854
-2.60128e-06
-0.000130649
-0.00272198
0.000422927
-0.0039453
0.00327569
-0.00046462
-0.0265033
0.0431858
-0.000764975
-0.0080243
0.00150594
0.00138665
-0.00510946
-0.00031651
1.81905e-05
-1.84852e-05
-0.00159358
0.00288072
0.000214722
4.64916e-05
0.00277538
-0.000537846
0.00284427
0.00109038
-0.00108295
-0.0319644
-0.00675768
0.033873
0.00527111
0.00248747
0.000693208
-0.000220752
-0.00816716
-0.00105368
0.00157883
-0.0321568
0.0147588
0.0116461
0.0056211
0.00645508
0.000506718
-0.000623474
-0.00730954
0.000163094
0.00374863
-0.000887131
-0.00272392
-0.000132195
0.00417336
4.58914e-05
-0.000448076
-0.00356613
0.00217063
0.00184634
-0.000438597
-0.00108137
0.00290828
-0.00018547
-0.000448609
-0.00341621
0.00409961
-0.000217364
-0.000795015
0.00394353
-0.00328454
0.000136504
0.00678324
-0.00382746
-0.00240099
-0.00047575
0.00200356
-0.000138699
0.00363479
-0.00108958
-0.00291106
0.000381883
0.0018755
-0.00355659
0.000770047
0.000916446
0.00262006
-0.00204452
-0.000132402
-0.00043169
0.000571915
0.00209543
-3.68774e-05
0.00637503
-0.00291619
-0.00435566
0.00101193
-0.00295314
-0.0030483
0.00672362
-0.000815162
0.00440176
-0.00767332
0.000276443
-0.00266123
0.00218131
3.62375e-05
-0.00451481
0.00492263
0.000755097
-0.00444457
-0.000317182
-0.00015309
-0.000338993
-0.00289843
-0.000171303
0.0120987
0.0183037
-0.0266476
-0.00285861
-0.00296009
6.76732e-05
-0.0259414
0.0301951
-0.000911437
-0.0030959
0.000117166
0.00339169
-0.000407704
0.00201753
-0.000964785
-0.00683629
0.00876523
-0.00174939
-0.00016127
0.00260718
-0.00100803
6.69354e-05
0.0055263
-0.00494237
-0.000674715
8.73752e-05
0.00833487
-0.00587742
-0.00207529
-0.000334971
0.00730996
-0.00094745
0.00197522
0.00262781
0.00182093
-0.00461684
0.000173277
0.00379258
0.00180683
0.00203151
-0.00796689
0.00786996
0.00450944
-0.00457024
-0.0239474
-0.00354682
-0.00412709
-0.00674387
0.00073922
0.00154997
0.00366755
8.51732e-05
-0.000100629
0.0255013
-0.0328299
0.00732908
0.000416725
0.0357529
-0.0366073
0.00214212
0.000239967
-0.00405527
0.00066136
0.00273492
0.000635536
0.00639093
-0.00556998
-0.000114091
-0.0192431
-0.000492892
-0.0381196
0.0120731
0.0243057
-0.000135733
-0.000690027
-0.000408661
0.00194538
-0.00175534
-0.000327142
-0.00610217
-0.000327746
-0.000849721
-0.00335656
0.000123974
0.00290628
-0.0114198
0.00116322
0.00386371
0.00267202
-0.00687661
0.000226596
-0.000476325
0.00439704
-0.0039984
7.7837e-05
-0.00132303
0.00438097
0.000411119
0.00377485
-0.000575237
-0.000346305
0.00196261
0.00196994
-0.00013065
-0.00137714
0.00385595
-0.00236834
-9.86816e-05
-0.00375351
0.00226507
0.000118436
-0.000292813
0.00299089
-0.00198365
-0.000698406
0.0296567
0.015966
-0.00116559
0.00223379
-0.000221488
0.000209318
-0.000113942
-0.00182185
-0.00558109
0.00695749
0.000498107
-0.0082597
0.00401327
0.00233148
0.0014446
0.00113974
-0.00265803
8.3388e-05
-1.42705e-05
-0.00418604
5.15239e-05
0.00413143
-0.000246625
-0.00329453
-0.0020714
0.00124802
-0.0101356
0.0239358
-0.0134338
-0.000867593
0.033377
0.00178354
-0.000779001
0.00586627
-0.00686462
0.000954127
4.51558e-05
0.00397077
0.000497437
-0.00374379
-0.000679785
0.000529741
0.00392874
-0.000479769
-0.00128407
-0.000430561
-0.000313484
0.00710849
-0.00350255
0.000155842
-0.00163333
0.00263959
-0.00157817
0.000587394
0.00113442
0.0021172
-0.00267082
-0.000584013
0.00385407
-0.00251155
-0.00022282
0.00582899
-0.00490347
-0.00198464
0.00106335
0.00498165
0.00166431
-0.000816989
0.0020468
-0.00128657
0.000217187
0.00541948
0.000160352
0.00307106
-0.00388927
0.00138333
-0.00056165
0.00344972
-3.48326e-05
-0.000336087
-0.00146506
0.00151378
-0.000500602
0.00046428
-0.00251115
0.000986411
8.65593e-05
0.00246585
0.000926305
-0.00364605
0.000258129
0.00381136
0.000672511
-0.00375657
-0.000719896
-0.00541554
0.0312826
-0.000770219
-0.00453011
0.0016035
0.00130579
-0.0227
0.0313888
-0.00859316
-0.000113645
0.00834023
-0.00539035
-0.00246974
-0.00036725
-0.000396503
-0.00246197
-0.00152819
0.000431423
-0.00312889
0.00119164
0.000654673
-0.0119594
0.0337572
-0.00321075
-0.00119518
0.00576344
-0.000767355
-0.00122337
-0.00643012
0.00765918
-0.000224653
0.00217039
-0.000711048
6.18657e-05
0.00380515
-0.0038498
-5.25489e-05
-0.0150349
-0.0232219
0.000110126
-0.0267584
0.000382834
0.000589118
-0.00887436
0.00853311
-0.000294193
-0.00274868
0.0026281
0.000368696
-0.000249229
-0.00148916
-0.00138813
0.000129667
-0.000339715
-0.00212407
0.00342292
-0.000943678
0.00707926
-0.00386329
-0.000419683
0.00409156
-0.000197237
0.000223743
0.00331883
5.61274e-05
0.0040724
-0.00113809
-0.00292573
-1.51291e-05
0.00035961
0.00393595
-0.000235074
-0.00348969
0.0033136
-0.000504353
0.00249752
-0.00222975
-0.000569194
0.00280962
0.000444266
7.82865e-05
0.00197413
0.000317066
-0.00291579
0.000561121
-0.0044621
-0.00202409
-0.000486973
-0.00226802
0.00252206
-0.000583841
0.00856517
0.00154095
-0.00155584
-0.00158603
8.88533e-06
0.00635627
-0.000514712
0.00170704
0.00498919
-0.000157199
-0.0083553
-0.0272129
-0.00020772
0.00291683
0.0034077
-0.00640345
0.000105234
-0.00223818
0.00338663
-0.000391983
0.00156304
-0.00209309
-0.000357044
-0.00939781
3.3981e-05
-0.000117865
-0.00443705
-0.00202646
-0.00364289
0.00348708
0.000827535
-0.000650453
-0.000548104
-0.00138622
-0.00056273
0.00031452
0.00390532
-3.34829e-05
0.00259408
-0.000489149
0.00303891
-0.00282537
-0.000174894
0.00131367
-0.000531162
-0.00227284
0.000349246
-0.000475647
-0.0198126
0.00383151
0.0208025
-0.00489378
-0.00109319
-1.00202e-05
0.000474496
0.00426958
-0.000663369
0.00207023
0.000151004
-0.00253241
-0.00312798
0.000116814
0.00144109
-0.000183577
-0.000262169
-0.00183025
-0.00147232
0.000102178
-0.0338128
0.0216718
0.00910399
-0.00481182
0.00365572
0.000991496
0.000166258
-0.00168723
-0.0026009
-0.000522367
-0.00651574
0.00304838
0.00459474
-0.000888702
-0.000338105
0.00550714
0.000624116
0.00231934
-0.000150885
-0.00165428
-0.0005786
0.00134879
-0.00232738
0.00172544
-0.000724343
0.00359837
-0.00144548
-0.000794555
-0.00210385
-0.00206981
-0.000353348
-0.000298749
-0.0331266
0.0101261
0.000410981
0.00247691
-0.00620126
0.00315769
0.000524521
0.00583165
-0.00388816
0.00056758
-0.00370751
0.000650336
0.00040074
0.00311408
-0.00506909
0.00236337
-0.000465173
0.0032835
-0.00133263
-0.000425735
0.00717512
-0.00599531
-0.00219335
-0.00297678
0.0015349
0.00203606
-0.000595845
-0.000836666
-0.00165319
-0.000476089
0.00663199
0.0008157
-0.00708847
-0.000330588
-0.00205858
-0.00112638
0.00345008
-0.000265534
-0.00409709
0.00428499
-0.000390267
2.17433e-05
0.00128523
-0.00588524
0.000359758
0.023948
-0.000403371
-0.000673062
0.00124131
0.0246436
-0.0235513
-0.00179767
0.0307544
-0.0253057
-0.00441144
-0.000575535
0.0055461
-0.00823055
0.00322136
0.00428924
-0.005574
0.000667448
-0.00545776
0.00353713
0.00133598
0.000597748
0.000521753
0.00246665
-0.00268618
-0.000313495
0.00330835
-0.00333083
-0.0002284
-0.0378441
0.0238471
0.00413484
0.000368184
0.0021755
-0.00199104
-0.000567526
-0.00101748
-0.000892697
-0.000403917
0.000685206
-0.0080872
0.00521158
0.00219046
-0.00120763
-0.00098615
-0.00179405
-0.00610476
0.00723427
-0.000368816
-0.000759992
-0.00253556
0.00131178
-0.000205548
-0.00451855
0.000525272
-0.000504775
-0.00107766
-0.00301268
-0.000423061
0.0170132
0.0256415
0.0003893
0.00346235
-0.00655383
-0.000418985
-0.00352593
0.00707197
-8.69623e-05
0.00349957
-0.000325691
0.00682702
-0.000794157
-0.00593338
-0.00011956
-0.000338884
0.00221325
8.53371e-06
0.00290226
0.00096601
-0.000527281
-0.00434984
0.00399475
-0.00123207
0.00154497
-0.00496583
-0.00147982
0.00720084
-0.00073202
0.00206494
-0.00155404
3.09133e-06
0.00122754
0.00537074
-0.00572963
-0.000938355
0.00123896
-0.00468593
0.0040595
-0.000503342
0.00661646
-0.00808256
0.00119984
-0.00288214
0.0043763
-0.00225267
0.000750542
0.00112726
-0.000328924
0.00553727
-0.00393879
-0.000510838
-0.00389776
-0.0258143
-0.00419034
-0.00339419
-0.000125011
-0.000110248
-0.00032743
-0.00162159
-0.00274586
-0.00112482
0.00534853
-0.0014749
-0.00407282
0.000532572
0.000292553
0.0013071
-0.00317352
-0.000683252
0.000337445
0.00332502
-0.000655468
-0.00172011
-0.000973574
0.0049766
-0.00222722
-0.00228381
-0.000462918
0.00190563
-0.00105648
0.00249951
0.0069642
-0.00993245
0.000453207
-0.00584693
0.00760717
-0.000940173
-0.000465036
-0.00553279
0.000206688
-0.016079
0.0454897
-0.00478036
-0.0015815
-0.00171131
0.00375736
-0.000488736
0.00421634
-0.00129695
-0.00251951
-0.00046124
0.00155805
-0.000666488
-0.00834351
0.00605122
0.00173961
0.000614102
0.000238897
-0.00390071
0.000765571
0.00896321
-0.00744668
-0.00206374
0.000585758
-0.020011
0.000816336
0.00197771
0.00584009
0.00629127
-0.00538991
-0.000813182
-8.7782e-05
0.00392472
0.00362737
-0.000159906
-0.0166558
-0.0129945
-1.68516e-05
-0.00223059
-0.00511253
0.000949646
0.00194735
-0.00226189
0.000719481
-0.000407785
-0.00174654
0.00315377
-0.00162956
0.000213103
0.00116216
-0.00315476
0.00170033
0.000319001
0.0290009
-0.00434777
-0.000918188
-0.00379207
0.000571215
-0.000320343
-0.00306122
-0.000608781
0.0204212
-0.0252563
-0.00057014
-0.00172522
0.00402783
-0.00180005
-0.000505439
0.00136129
-9.501e-05
-0.00418678
-4.03831e-05
0.00452924
-0.000339251
-0.00241321
-0.000473968
-0.00323693
-0.00110152
0.00409822
0.000235932
-0.00304012
0.000751302
-0.000437942
0.0398815
-0.017171
-0.021057
-0.00133121
-0.00213421
0.00100278
-0.000846489
-0.0050532
0.0160961
0.003731
0.031188
0.000219083
0.000956633
-0.00831807
-0.000767469
-0.00359326
0.00277176
-0.000386059
0.00290251
0.00465061
-0.000237143
0.00400172
-0.00237479
-0.000931648
0.0038188
-0.00088157
-0.00057481
0.00419408
-0.0028114
-0.000857884
-0.000520218
-0.000162484
0.00280527
0.00153516
0.00063913
0.00271105
0.000118882
-0.000919331
0.00436319
-0.00339672
-8.53033e-05
0.00398119
0.00195751
-0.00672878
0.000867157
0.000664625
-0.00334804
0.00152628
0.00116196
-0.00238031
0.00249437
0.00055402
0.00178445
0.00144834
-0.00172752
-0.00120635
8.59497e-06
-0.00690725
0.000779844
0.00458022
0.00206954
0.000235256
0.00249702
-0.00251907
-0.000189548
0.00242986
0.00153052
0.00385309
-0.00176977
0.000483965
0.00164083
6.98996e-05
-0.000962746
0.00283606
-0.00880401
0.00566746
0.000262763
0.00891739
-0.00541201
-0.000725651
-0.00567602
-0.00188199
-0.000755347
-0.00198953
0.0027341
-0.000909646
0.000168502
0.00348318
0.00459841
0.000680144
0.00102593
0.00259701
0.000156533
0.00911323
0.000133326
0.0313647
-0.0106463
-0.000546896
-0.00554185
0.00306011
-0.00116099
0.00367106
0.00206458
-0.00139401
-0.00276591
-0.00305333
0.000197266
-0.000334008
0.00260104
0.00195167
-0.00070427
0.00256683
-0.00216673
1.53191e-05
0.00111998
-0.0027913
-0.000479334
0.00365471
-0.00279959
-0.000602982
-0.0293955
0.0129336
-0.000281243
-0.00275932
-0.000872418
-0.000255198
-0.000401455
0.0025722
0.000511631
-0.00247854
-0.000596756
0.0064003
0.000902167
0.00360371
-0.000906736
-0.00246225
-0.000233792
0.00315705
-0.000670346
0.004109
0.00584975
0.00230432
-0.000954211
-0.000367441
-0.00266022
0.000961289
-0.00057034
-0.00213899
0.00150811
-0.000385936
-0.000171598
0.00123674
9.27874e-06
-0.0023081
0.00319113
-0.00086864
-0.000757744
-0.00378526
0.00285575
0.000185953
0.000753243
0.00155729
0.000769253
-0.00222524
-0.000101587
0.00896464
-0.00618974
-0.000306279
-0.00119185
0.00259025
-0.000300546
0.00158327
-0.000298128
-0.00158549
-0.000101036
0.00360273
-0.00115544
9.77414e-06
0.00259397
-0.00424875
6.46041e-05
0.00358865
-0.000412237
0.00424296
-0.00280737
0.000382875
-0.0373624
0.0369398
0.000444689
-2.92446e-05
0.00277598
7.7707e-05
-0.00348984
-0.000331659
-0.00359161
0.000934024
0.000155089
0.00137235
-0.00166957
-0.000267944
0.00320951
-0.000551385
0.00174271
0.00657598
-0.00413158
-0.00125708
-0.00127386
-0.00160168
-0.00072745
-8.98864e-05
-0.00308458
0.00187299
0.00112028
7.58418e-05
0.00226703
0.000238324
-0.00249434
-1.1154e-05
-0.00119583
0.00323804
-0.000387732
-5.91798e-05
0.000313692
0.000107398
-0.000115493
-0.00802846
0.0100563
-0.00146724
-0.00108231
-0.000588263
-0.000482735
-0.00737392
0.00959305
0.00032335
-0.00217676
-0.00162913
0.00295047
-0.00261286
0.000934626
0.00189134
0.000349379
-0.000589086
0.00245695
0.000156922
-0.00105239
-0.000235961
-0.00050972
-5.83909e-05
0.00280842
-0.00319232
0.000445368
0.00181259
0.00434561
0.000250969
0.0191366
-0.0295308
0.0098489
0.000379305
-0.000713134
-0.00303385
-0.000498314
-0.00365202
-0.000123106
6.95554e-05
-0.00105898
0.00614477
-0.000950316
0.0179958
-0.00965103
-0.00305437
-0.00636625
2.8451e-05
0.00144743
-0.00253334
0.00102302
5.96681e-05
-0.00175604
-0.00166778
-0.000125954
-0.0273055
-0.00941865
-0.00225789
0.00273815
-0.000890905
0.0203799
-0.0145259
0.000119572
-0.0096104
1.94581e-05
-0.0204116
0.038306
-0.0148331
-0.00284372
-0.00340527
-0.000264118
0.00274225
0.000932304
-0.00699674
0.000344423
-0.00747641
0.000191119
0.00021519
0.000681767
-0.000778169
-0.00163155
-0.00026372
0.000424584
0.00483432
0.00039761
0.0030585
-0.000863979
-0.000457783
0.0014328
-0.000117151
0.00157248
0.00325757
-0.00474726
3.15709e-05
0.0027734
0.000241297
-0.000411096
-0.000571679
-1.6771e-05
0.000392613
0.00188492
-0.00201062
-0.000268157
-0.00401804
0.00773076
-0.00367778
-5.70925e-05
0.00241781
-0.00637577
-6.92908e-05
-0.00357454
0.00251242
0.00100385
-0.000454868
7.36177e-05
-1.74695e-05
0.0139551
0.00238893
-0.00587309
0.00560025
-0.000907465
0.00116616
-0.00331918
0.0011903
0.000517975
-0.00218631
0.00257896
0.000263908
0.00140123
-0.00446164
0.000881935
-0.00173444
0.00394677
-0.00206274
-0.000151769
0.0273866
-0.0416319
0.00120042
-0.00621308
0.00563972
-0.000164192
0.00879278
-0.00164657
0.000505763
-0.00721886
0.00127032
-0.000357269
-0.00967994
0.0013639
0.000994166
-0.00558101
-0.00240167
-0.00163801
0.00308114
0.000548054
0.00965607
-0.0057822
2.49041e-05
-0.00104377
-0.000123203
0.00376246
-0.00104402
0.00246778
-0.00580675
0.000848814
0.00246256
0.00251632
-0.00142497
0.000246432
-0.0067752
0.00161479
0.0050433
0.000106063
-0.000226028
0.000263948
-0.00729967
0.00173994
0.000676996
-0.00571049
0.000334669
-0.000480234
0.00193603
-0.0036063
0.00132699
0.000351513
0.0141658
0.000320779
-0.00484663
0.005784
0.000898359
-0.00706393
0.00845777
-0.00175169
0.000321756
-0.000795267
0.00248873
-0.000179296
0.00247529
-0.00299564
-0.000265661
-0.0029067
0.0037106
-0.000416431
0.00593876
-0.000819836
-0.000347848
-0.000258187
-0.00634977
-4.58386e-05
0.000641308
0.00502824
-0.0041489
-1.57425e-05
0.00186788
-0.00841339
0.00788247
-0.00138878
-0.00166032
0.00392989
-0.00302126
0.000855827
0.00451575
0.0027837
0.00222934
0.00728231
-0.00403458
-0.00293217
-0.000353222
0.00168191
-0.000452983
0.00144044
-0.000555882
-0.0357234
0.0108976
0.00229932
-0.0232252
-0.0119529
0.000565444
0.00245642
0.00120028
-0.000888282
-0.000487358
-7.7424e-05
-0.0084208
0.0127025
-0.00369352
-0.000430794
-0.000361936
0.00215339
0.00194264
-0.000236981
0.00392286
-0.000348774
0.00584169
-0.000601198
-0.000316821
-0.0300548
0.00254332
-0.00117285
0.00290073
-0.000188923
-0.002542
0.0020322
-0.000659373
0.00448695
-0.00480798
0.000513511
-0.000223106
-0.000113266
-0.00170489
-0.000314297
-0.00443275
0.00514114
0.000100546
-0.00083347
-0.00388268
-0.00394374
0.00681321
0.00108095
-0.00213427
-0.000494589
-0.000508757
0.0205091
0.00840022
-0.000119094
-0.00484447
0.0065914
-0.000660984
-0.00121089
-0.00179763
0.00311962
-0.000482375
-0.00319268
0.00656737
-0.000121864
0.0170368
-0.000143487
-0.0117547
-0.00350156
0.0153728
-8.18482e-05
-0.00397708
-0.000107862
-0.00410902
-0.00185831
0.00512897
0.000846598
-0.00456134
-0.000572146
-0.000276919
0.00459557
-0.000274862
0.00336956
-0.000993564
-0.000346047
-0.00632799
-0.000663574
-0.000628656
-2.30888e-05
0.00369872
-0.000280092
-0.00700653
0.00072407
-0.000804248
0.00225592
0.00119671
-0.00280684
-0.00063084
-0.00156961
-0.00086818
-0.00768638
0.00302121
0.00529527
-0.000635242
0.00138041
-0.00268342
0.000116876
-0.00647996
-0.000956503
0.00749935
-0.000153225
-0.00106705
7.67761e-05
0.00361298
-0.000995974
-0.000544533
0.00227372
0.00214454
-0.000792186
0.00322214
-0.00133798
0.000286716
-0.000922871
0.00372018
-0.000504532
0.00247316
-0.00205677
-0.0001813
0.00630536
0.000164823
-0.00145736
-0.00561241
0.000705359
0.0266094
0.00836793
-0.00192223
0.00381286
-0.00826303
-0.00037052
-0.00719793
-0.0248285
0.000708135
-0.00231993
0.00305512
-7.17272e-05
0.0072066
-0.00670243
-0.00169556
0.00110512
0.00371531
-0.000684105
0.00514724
-0.000777166
-7.26681e-05
-0.00212835
-0.00526032
-0.000656358
0.00202314
-2.57721e-05
0.00492142
-0.00149688
-0.000912071
0.00208178
0.0026851
0.000167047
-0.00169389
0.00140312
0.000181437
0.00331352
-0.00281919
5.73483e-05
-0.000574091
0.00410612
-0.000230249
-0.000552575
0.00195293
-0.00310179
-0.000325376
-0.00384336
-0.00430817
0.000499616
-0.00468215
-0.00369151
0.00916399
-0.000718687
0.00153717
-0.00419273
-0.00169289
-0.00406743
-0.00136122
-0.0339884
0.00287684
0.0300769
0.000596789
-0.000349004
-0.00183639
-0.00223847
-0.00371862
0.00627961
-0.000334412
-0.00179029
0.00122146
-4.16409e-05
-0.000288914
0.00508589
0.00028542
-5.60366e-05
-0.00293837
-0.000406437
0.003063
9.62241e-05
0.00611852
-0.00676443
-0.000540908
0.00188079
-0.00671851
0.00490053
-5.16409e-05
0.00954982
-1.92107e-05
0.00557077
-0.00285143
-0.000779627
0.00510628
-0.00559874
0.000214981
0.000253901
-0.00755949
0.000639916
0.00697722
-2.21651e-05
0.00511669
0.00228798
0.00011286
-0.00129063
0.00199901
0.00222144
-0.0238568
-0.000907396
0.00496444
-0.00200739
-0.00165886
-0.00130623
-0.00806407
9.91846e-05
0.0022563
0.00101865
0.000377144
0.025757
-0.0158043
-0.00145011
-0.009482
0.00180754
0.000157759
-0.00401241
-6.80252e-06
0.00468985
-0.000671483
0.00262615
0.000720889
-0.000612109
-0.00943277
0.0103634
-0.00176811
0.000849171
0.000969308
0.00584418
0.000399581
-0.00374495
-0.000526553
-0.00119535
0.00167466
-0.000248927
0.000333149
-0.00595674
0.0048398
0.000783906
0.00287583
0.00306239
0.00134264
-0.00480107
0.00796153
-0.00334719
0.000178423
0.000233004
-0.00878576
0.00494805
0.000696385
-0.000391345
0.00549703
0.000304138
0.00602396
-0.0043695
-0.000116823
-0.0297914
0.00031933
-0.000352731
0.00170653
-0.00265543
-0.000404042
-0.00127675
-0.00665422
0.00350872
-0.00588618
0.00288805
0.00286584
0.000721184
-0.0145752
-0.0231189
0.000432287
-2.60778e-05
-0.000367289
0.00538636
0.00340412
6.6877e-05
-0.00707475
-0.00106959
-0.00070007
0.00246094
0.00264693
0.00138211
0.000690972
0.00677267
-0.000207606
-0.000243567
-0.00441911
-0.00214536
-0.000768309
-0.0024718
2.74451e-05
0.000393306
-0.00344434
0.00317413
-0.000189002
0.00386254
-0.00304492
-0.000401698
-0.00757246
0.00542943
0.000619341
0.00153303
0.00287905
-0.00150242
-0.000662094
-0.000967996
-0.00160639
-0.00033837
-0.000665108
2.48722e-05
-0.000251581
-0.00232314
0.000122951
0.00501416
0.000234416
0.000599679
-0.00272168
0.00834184
-0.000606295
0.00441742
0.000326123
0.00852893
-0.000429246
-0.00557074
0.00618576
-1.5351e-05
-0.000607521
-0.0010972
0.00616402
-0.000598997
0.00313896
-0.00471288
0.000173746
0.000531911
0.000127649
-0.00025227
-0.00598117
-0.000512191
-0.000957044
-0.0016363
6.37316e-05
-0.00124961
0.00286246
0.000244126
0.0111897
-0.0285435
0.00148832
0.00767787
-0.00493489
-1.94949e-05
0.00158302
-0.000116386
0.00157312
-0.00179224
-0.00105779
-0.00282991
0.000407206
0.000576974
-0.00251355
0.00713351
-0.00349557
-0.00114217
-0.000388921
-0.000523242
-0.00276996
0.000263764
0.00219012
0.000322657
-0.00154999
-0.00614876
0.000143878
-0.00510569
0.00319247
7.18001e-05
0.00175533
0.000178772
0.00107515
-0.00502636
0.000391149
0.00426284
-0.000379115
-0.000242294
0.000225392
0.00618697
0.000108367
0.00827674
-0.00624005
-0.00191177
-0.000112564
0.00163817
-8.09527e-05
-0.00528173
0.00022712
-0.0178664
0.0306785
-0.00114148
-0.00232849
-6.65616e-05
0.00584426
0.00407778
-0.000216218
0.00430234
-0.00191979
-8.46267e-05
0.00030001
-0.00378005
5.89751e-05
-0.00312211
0.00386821
-0.000408993
-0.0050074
-0.00326797
-0.000609682
0.00325346
-0.000307136
0.00131563
0.000312788
-0.000165143
-0.000207044
0.00062666
-0.00561881
0.00202206
-0.00223265
0.00333354
-0.00013128
-0.00482801
0.00701845
-0.00177252
0.00219217
-0.00384054
-0.00061616
-0.000911412
-0.00100932
-0.00178487
0.00466698
-0.000372162
0.00391193
-0.00197288
-0.000369967
0.00758552
8.03042e-05
0.00159516
0.00600857
6.41522e-06
0.00791732
-0.000577387
-0.00204262
0.000914832
0.0047519
-0.000285307
-0.00938903
0.00135905
3.88644e-05
-0.00670892
-0.00252516
-9.60568e-05
0.00182244
-0.000186015
-0.00271273
-0.00209913
-0.000761853
-0.00752136
2.32454e-05
-0.00708007
-0.00024593
-0.000156834
0.00139502
0.000486776
-0.0022123
0.000348228
0.00324078
0.000960648
-0.00344526
0.00586815
0.000490226
-0.00629553
0.00628712
-0.000992976
0.0124753
-0.0279073
0.000901387
-0.00887334
-0.000251227
0.00580203
-0.00114715
-0.0038055
-0.00522711
0.0101504
-0.0013371
0.00395429
0.00152678
-0.0014995
0.00285666
-0.0016558
-0.0013546
0.00015912
0.00189293
-0.00406715
0.00201171
0.00018128
0.0030865
-0.00117382
-3.0293e-05
0.00494799
-0.00640621
0.00147238
-2.13554e-05
0.0296516
-9.40423e-05
0.00306741
-0.00313611
1.25789e-05
-0.00675432
0.00782973
-0.00090594
-0.000181616
-0.00498133
-0.00351888
0.000932474
-0.00159884
-0.00233659
-0.00109517
0.00179654
0.00123817
-0.00018211
-0.0337051
0.0150322
-0.00232899
-0.00850826
0.00163316
0.00436807
0.00242979
-0.00537462
-0.00222772
-0.00603066
0.00570977
0.00171143
0.00139923
0.00177286
-0.000405528
0.00036075
-0.00153068
-0.00216951
0.000210419
-0.00214539
0.000352739
-0.00375801
0.00244232
0.000770504
0.000546112
-0.00508874
0.00532271
0.000169457
-0.00616232
-0.00445953
0.00481118
-0.00554684
0.000766229
1.58865e-05
0.00570284
-0.00920521
1.99003e-05
0.00374823
-0.00126472
-0.000310408
-0.0030543
-0.000333317
-0.000643055
-0.00294546
0.000525465
-0.00207927
-0.0114479
-8.08973e-05
-0.00330615
-0.00558676
6.44082e-05
0.00333108
-0.00534461
0.000536597
0.0017263
-0.00437223
-5.25161e-05
-0.00439151
-0.0037912
0.000132724
-0.00863525
0.00301829
-0.000265444
-0.0014739
-0.000229727
0.020519
0.000964863
0.00333452
-0.00166879
-0.00381151
-0.0267058
0.0305216
0.000275344
0.00482983
9.893e-05
-0.0159521
-0.026042
-0.000190042
-0.00514882
-0.000323484
0.000136152
0.00547246
-0.00303214
-0.00123669
0.0131025
-0.0162151
0.00353498
-0.000962994
-0.00779982
0.00360079
0.000296746
-0.00479688
0.000810357
-0.00971663
-0.00318417
-0.00177911
0.00363872
-0.000526134
-0.00348682
-0.00669419
0.00796066
0.00218339
-0.00151287
0.00201235
8.1767e-05
-0.00633134
0.00232716
-0.000648025
0.00202387
0.00048633
-0.00205578
-0.000462073
-0.000610004
-0.000170757
-0.000443713
0.0181589
0.0209283
-0.000678336
-0.00199922
7.55477e-06
-0.0308191
-0.00306439
0.000758918
-0.00120868
-0.00015546
0.0416395
-0.0154514
-0.0265984
0.00056338
0.00335227
-0.00363799
0.000972169
-0.000697023
0.00705202
-0.000615383
0.000699466
-0.00305001
0.00694877
-0.00388573
-3.16496e-05
-0.00653756
0.00278531
0.000787162
0.00466165
-0.00686824
-0.000301721
0.00966721
-0.00465538
6.04986e-05
0.00873308
0.00252724
-0.00157268
0.0100663
-6.03235e-05
-0.00122387
-0.000121958
0.0012063
0.00513002
0.00084898
-0.00101339
-0.00501987
-0.000464126
-0.000621243
-0.000757562
0.00460502
-0.00200774
0.000547843
5.81129e-05
-0.00612187
0.0270254
-0.000665119
-0.000341625
0.00196137
-3.66226e-05
8.09869e-06
0.00218082
0.000120746
0.000899214
-0.00315021
6.05968e-06
0.0257626
0.000172875
0.00836318
-0.00434937
-0.000122067
0.00549852
-0.000186367
0.00499881
-0.00141612
0.0241508
-0.000410593
0.01294
-0.0243789
0.00265274
0.00749016
0.000636372
-0.0100938
0.00612141
-6.40313e-05
0.0258933
-0.000269351
-0.00421414
0.00311709
-0.000509975
-0.00246396
-0.000606216
0.0233604
0.00423673
0.0137787
-0.0102784
0.00298549
2.77495e-05
-0.00782778
0.00110514