/*--------------------------------*- C++ -*----------------------------------*\
| =========                 |                                                 |
| \\      /  F ield         | OpenFOAM: The Open Source CFD Toolbox           |
|  \\    /   O peration     | Version:  2212                                  |
|   \\  /    A nd           | Website:  www.openfoam.com                      |
|    \\/     M anipulation  |                                                 |
\*---------------------------------------------------------------------------*/
FoamFile
{
    version     2.0;
    format      ascii;
    arch        "LSB;label=32;scalar=64";
    class       volVectorField;
    location    "10";
    object      U;
}
// * * * * * * * * * * * * * * * * * * * * * * * * * * * * * * * * * * * * * //

dimensions      [0 1 -1 0 0 0 0];

internalField   nonuniform List<vector> 
76335
(
(11.6514 -0.272165 -1.15275)
(7.78442 1.44331 0.0486665)
(5.79749 -0.368562 -0.0685981)
(6.46353 0.297179 0.304484)
(8.99048 2.47627 -1.27553)
(9.62643 0.574602 -0.783036)
(10.9232 -1.6976 3.00349)
(8.09858 -0.179794 0.33557)
(5.3272 0.185007 0.9485)
(8.6003 -0.00395465 0.325011)
(13.2522 -2.9159 1.73986)
(6.38184 -0.3657 -1.15459)
(6.28455 -1.5469 -0.206089)
(9.62099 1.54351 -0.371118)
(7.41998 0.149213 -0.700477)
(7.84458 -0.228809 -1.16614)
(7.78444 1.09128 0.072611)
(9.98233 1.36842 -0.460197)
(7.79875 1.18019 0.0755265)
(7.08393 -3.34466 0.547658)
(12.5284 -2.94508 1.07454)
(6.73044 0.467358 0.225972)
(9.79389 0.617313 1.97909)
(10.6954 0.191729 1.74106)
(4.02024 3.46022 1.39093)
(4.54731 3.3797 1.26088)
(12.4575 -2.81611 1.70559)
(9.13447 0.14377 3.80268)
(7.36118 0.942146 3.12375)
(7.37149 -1.83775 0.959846)
(8.27113 1.92303 -0.232538)
(10.2826 0.272206 0.0217672)
(3.00125 -0.127369 1.09315)
(9.71069 0.546634 -1.46269)
(8.61574 -0.249748 -1.26378)
(10.7984 -0.603642 -1.09131)
(5.87596 -0.311099 1.84155)
(9.07577 0.295216 0.012387)
(9.40887 -0.108784 -1.11618)
(9.74294 -0.91742 -0.0663279)
(9.27272 0.0628774 0.93697)
(9.75787 -0.685666 3.27262)
(8.52283 2.205 2.88191)
(10.0174 1.1716 1.43587)
(9.67198 -1.36881 0.00275117)
(9.43207 1.53472 -0.729532)
(9.00292 1.23441 -1.984)
(9.85572 1.51424 -1.16574)
(9.32282 2.00104 -1.87279)
(9.15342 1.17583 -2.03164)
(6.99174 -1.90808 0.259853)
(11.1938 -0.102759 1.65687)
(9.59516 -0.892736 2.74934)
(4.32631 0.54036 0.304549)
(6.26036 -1.45897 1.02973)
(3.44765 3.79204 -0.395242)
(3.70536 3.75458 -0.198927)
(10.1597 3.04975 1.51146)
(9.21975 1.00868 -1.77378)
(10.4796 -0.367425 1.39106)
(10.5564 -0.7553 -0.455988)
(7.14977 2.87197 2.1817)
(8.91879 2.38069 3.9768)
(8.05174 2.22421 3.33439)
(6.91775 2.29759 2.61485)
(10.1852 -0.724335 3.52151)
(10.1815 0.279036 0.00964849)
(7.38519 -1.7754 0.711414)
(8.59558 -2.09622 1.76977)
(7.34908 0.26838 -1.94841)
(8.14515 0.948991 -0.0242913)
(7.60737 0.812969 -0.527056)
(9.68249 -1.25025 3.87057)
(6.45433 3.41639 2.28461)
(6.59121 0.556002 -1.34266)
(9.29491 -1.28762 1.68039)
(11.8005 1.30033 2.76673)
(8.75996 -1.53422 1.65579)
(12.4208 0.371899 2.02618)
(10.7363 -0.218335 1.56775)
(8.10893 2.7282 2.82238)
(9.75827 -0.490929 -0.432405)
(8.4057 1.21012 2.29694)
(9.15691 1.51694 -1.05076)
(9.04357 -0.095772 -0.135907)
(12.3093 1.281 -0.0542859)
(7.82266 1.66055 -0.970661)
(8.16013 1.40155 3.051)
(9.95552 0.479541 -0.825931)
(10.4551 0.79723 -0.932727)
(6.26341 -1.25639 0.247591)
(7.56935 1.5421 0.022988)
(6.62156 1.02217 -0.309444)
(10.855 0.289984 1.63604)
(13.4984 0.54179 1.44806)
(7.70312 2.4044 -0.14976)
(6.53993 1.64062 -0.216505)
(8.06302 1.27635 -0.00609945)
(7.43617 1.71453 0.158537)
(9.40722 0.757053 1.13185)
(11.9675 0.554211 1.0171)
(11.6781 -0.200817 -0.00879796)
(8.89537 0.0630501 -2.99966)
(8.16437 2.40975 -0.367565)
(11.9412 0.849464 -1.47159)
(4.97333 -0.685138 0.830434)
(5.71324 1.69709 0.625839)
(7.38946 -1.18732 0.759781)
(7.63232 -1.03705 0.0558934)
(6.82311 2.80245 -0.295146)
(7.05807 2.7513 -0.197454)
(11.2103 1.18759 0.69521)
(8.2726 -1.22284 -2.84072)
(8.13072 1.61095 2.48449)
(7.60364 1.03501 0.146944)
(9.51632 1.50093 -1.0298)
(7.19355 1.35683 2.83484)
(11.1249 0.820716 0.632459)
(10.9059 0.72915 0.298079)
(8.05906 -1.7023 -0.0898175)
(9.57401 0.751589 -2.29552)
(9.47192 -0.884683 -0.0813661)
(6.84568 2.81048 -0.286195)
(7.01627 0.940542 0.0841129)
(9.00561 1.29376 -1.20128)
(7.77514 -3.39235 2.83013)
(8.05444 1.09119 -2.39381)
(8.78608 -1.58859 -2.65103)
(9.6189 0.359027 -1.08537)
(9.86744 -2.0739 0.549306)
(10.652 -0.304712 0.652328)
(9.54474 1.73121 3.63888)
(9.85285 0.239804 0.00782519)
(9.52409 0.877266 -3.68777)
(8.92483 0.0591126 -2.80338)
(10.0941 -0.97457 1.49231)
(9.46922 -0.0279766 -0.262811)
(6.76925 -1.60643 1.13717)
(10.3852 -1.40088 4.99713)
(10.2322 -1.76945 0.0686833)
(6.89238 -1.59882 1.54663)
(7.7901 0.551148 -1.97323)
(9.31282 -0.269691 0.0248749)
(10.1132 0.64505 -1.76199)
(7.4107 2.59994 -0.232721)
(7.66737 -4.2305 1.83587)
(8.33385 -3.66402 1.97017)
(9.15981 -0.885801 1.93662)
(9.56262 -1.29633 3.17761)
(8.63777 -0.020404 -0.210935)
(10.7116 -0.0371093 -0.439807)
(7.97268 -0.116766 1.03799)
(7.48397 -1.37876 1.70369)
(9.26489 -0.907182 -0.537097)
(6.3931 1.78715 0.77053)
(5.99637 -3.27358 -0.270032)
(6.58873 -2.91206 -0.151583)
(7.17509 -0.627611 0.129578)
(6.88757 2.51157 -0.507903)
(7.31068 2.64746 -0.515043)
(9.88552 0.347621 1.78906)
(13.322 2.39404 1.65517)
(8.54711 0.650205 -2.89681)
(6.73652 -2.44947 0.474907)
(8.68962 -0.55921 0.987047)
(9.66616 -1.28866 0.135794)
(10.0736 1.39217 -0.276674)
(12.1066 0.851252 2.68866)
(10.3839 1.00809 2.81019)
(6.56102 2.495 -0.230108)
(8.67325 -0.598941 0.252577)
(10.3854 2.31993 1.3651)
(9.27205 0.240749 -0.136877)
(8.73052 0.483623 -0.776118)
(11.1764 0.452673 3.59193)
(9.4322 0.537284 -4.10219)
(7.89221 -4.06809 2.171)
(9.2062 0.582268 0.526436)
(8.88084 0.976259 -2.74615)
(8.85805 -1.3404 -0.50616)
(8.82221 1.31216 -0.0387647)
(9.55828 0.53245 0.000769168)
(12.2455 -0.632682 3.00472)
(7.41467 2.03911 0.233334)
(10.048 -2.02861 0.90276)
(10.3956 -0.445869 0.0645709)
(6.75747 2.95019 2.94666)
(10.5202 0.0908659 -0.260221)
(7.00404 2.55865 -0.196911)
(13.3458 -0.569168 4.37671)
(9.24529 2.17318 -1.561)
(5.30157 -0.291862 0.757847)
(9.81991 -1.7727 -0.299136)
(5.16623 0.0372421 0.670506)
(9.68683 2.36634 2.99898)
(10.3871 2.17586 2.68862)
(10.5125 0.167344 3.38177)
(10.4895 -1.89067 3.16442)
(6.36743 1.80623 2.16674)
(9.82173 -0.16574 0.0983427)
(4.82692 3.88384 2.03699)
(5.61548 4.22035 2.06704)
(10.4399 -0.00033486 -2.44224)
(9.93173 -1.8043 -1.94172)
(9.80019 -1.18665 -0.745197)
(8.72792 -0.110444 -0.677274)
(2.675 3.91471 -0.985447)
(3.70483 2.57261 -1.66929)
(9.96275 0.261747 -0.985209)
(9.41354 0.781892 -0.00778262)
(9.91244 -0.262416 -1.59538)
(11.5218 1.18403 4.14801)
(12.9673 0.864259 4.14316)
(5.67442 -3.1929 -0.587132)
(7.86622 -0.871355 -4.15672)
(8.56273 0.212729 -0.890919)
(7.74125 -0.82426 1.82632)
(8.49772 -0.450688 2.13622)
(5.60899 1.45223 -0.77391)
(5.2976 1.18768 -0.279934)
(9.42054 0.399565 1.17712)
(6.55553 -1.49506 1.62254)
(10.0961 0.703747 2.13803)
(11.1419 0.794734 1.89806)
(5.51448 -0.570638 1.15043)
(5.59653 0.645808 1.18861)
(10.4625 -1.91289 1.41793)
(10.5638 -0.612245 3.9721)
(8.68653 1.55738 -0.0406074)
(11.9044 -0.483551 -0.229167)
(8.62268 0.5883 0.0109481)
(11.8172 -0.0722434 -1.18344)
(10.9387 -0.641403 -1.03486)
(9.72653 -0.753754 1.84546)
(5.29247 -3.25176 -0.502105)
(10.8391 0.118423 1.85476)
(11.6918 -0.50492 4.49526)
(8.17682 0.215735 -0.924141)
(7.67654 -0.350875 -3.85208)
(7.9784 -0.038659 0.755223)
(10.359 -0.192233 0.122034)
(9.9924 -0.193578 0.0111321)
(9.93474 0.202082 -1.84527)
(5.22612 -2.38107 1.05627)
(4.80137 -2.29655 0.95636)
(9.67387 -0.476536 2.35494)
(10.2684 1.0277 -1.28951)
(8.73438 -0.38522 -0.465841)
(7.3855 -3.39304 0.238475)
(9.954 0.669855 -0.0445716)
(9.43291 -0.182922 -0.377919)
(8.4127 0.280725 -3.07734)
(5.6827 -0.315399 1.63648)
(8.10182 -2.43913 0.0993081)
(6.68451 -5.32353 1.26128)
(5.40842 0.425327 0.334078)
(8.70575 -1.70916 2.35505)
(6.20406 -1.50157 -0.722222)
(5.99544 -3.91372 -0.561752)
(8.89496 0.766527 -1.43579)
(7.47836 -0.0604512 0.333145)
(9.25647 0.251266 0.00866261)
(9.66673 1.83739 1.18934)
(9.98173 0.464421 1.5808)
(6.30306 -4.03702 1.08704)
(7.71845 1.01763 0.146971)
(6.50327 0.189946 -2.08936)
(11.2045 -0.447534 0.798893)
(4.18271 1.27684 1.1312)
(8.76762 -3.52644 1.78405)
(9.26031 -0.498649 0.221574)
(9.91077 -0.814069 1.40576)
(10.5637 -0.0958051 1.39558)
(7.83837 1.04936 1.21378)
(8.9335 0.00820336 1.32658)
(7.63495 1.62316 0.115735)
(9.17744 -0.876591 0.110399)
(6.55416 2.37119 -0.292991)
(2.79573 0.581802 0.279073)
(4.71183 0.0385613 0.904492)
(9.41538 -1.07712 3.34334)
(8.06145 0.926434 -1.20402)
(10.2758 -1.08351 -0.396044)
(9.84565 -0.695753 -0.104004)
(8.49224 -0.735478 -3.1029)
(8.37795 0.0231436 -2.01053)
(3.03801 5.50617 0.681101)
(3.75271 0.271867 1.4914)
(5.64393 1.2209 1.54468)
(13.1119 -0.145774 1.37935)
(12.0178 0.428247 1.57797)
(8.72465 0.478799 0.0166483)
(10.5695 -0.491508 -1.79547)
(9.86536 0.0945911 -2.62214)
(11.1144 0.402775 1.95659)
(13.0063 -0.300671 0.659917)
(5.60749 4.80857 2.42693)
(6.84399 -1.44741 -2.06127)
(9.0814 -1.46131 3.16861)
(8.02368 -1.50072 2.39016)
(6.97714 2.17192 -0.0704377)
(10.4473 -0.537134 1.40259)
(4.24691 -1.02577 0.171457)
(5.21674 -0.419766 -0.113728)
(7.53417 0.469479 -1.04389)
(9.47006 0.0106315 -0.0243866)
(9.58853 -1.42865 -0.324247)
(11.0756 -0.00641256 -0.390509)
(7.57671 1.4725 -0.846298)
(8.88311 -3.45628 1.34161)
(9.42322 -2.07673 2.12181)
(6.96885 1.45473 -1.69538)
(10.3506 0.66739 -1.0305)
(7.9178 -0.340532 2.72099)
(2.53093 0.221267 1.15034)
(7.25066 -1.23842 0.0230705)
(7.77349 1.93207 3.73631)
(8.81157 0.183286 -1.02986)
(7.58243 1.78554 1.70619)
(13.3475 1.75786 3.74868)
(11.7388 1.37941 3.88175)
(9.68692 0.307264 -0.00606683)
(9.86397 -0.385651 -2.59938)
(10.3698 0.213869 -2.96173)
(11.4365 0.390177 3.90003)
(7.23685 1.16535 0.208926)
(6.3812 1.10182 0.989088)
(10.11 0.393111 1.52745)
(4.56686 -0.99692 -1.42519)
(13.6741 0.102678 1.29395)
(8.11354 -2.68041 2.12828)
(10.1587 -0.329481 1.85389)
(8.13773 4.5626 2.41282)
(10.6217 0.58512 -1.92064)
(12.9788 -1.31338 2.22059)
(9.5861 -2.11886 0.342487)
(10.4132 0.0786213 1.99955)
(8.87209 0.328602 -0.316497)
(10.8455 -0.254567 1.22543)
(9.82207 1.43785 -0.641584)
(11.7395 0.207936 3.77211)
(11.56 0.580348 1.24474)
(3.22639 0.731335 0.19006)
(10.4137 3.14908 1.14847)
(7.28069 1.14018 1.58538)
(9.05858 -1.12613 -0.474774)
(8.66558 0.442575 1.9831)
(10.1251 1.4649 -0.470276)
(8.01699 0.865408 -1.39426)
(7.07889 1.89644 -2.48)
(10.6345 -0.808486 0.777753)
(9.98633 -1.16621 0.269999)
(9.58255 1.87431 1.60397)
(9.79232 1.0487 1.93526)
(9.05141 1.18822 -0.440489)
(13.5145 -2.5206 2.4293)
(9.42013 -1.28692 -0.272885)
(9.60547 0.558245 -0.00212456)
(9.66018 0.0826792 0.860924)
(12.5258 -2.63302 2.56052)
(7.60252 2.19435 0.0160584)
(8.33476 0.545149 0.00196434)
(7.85384 -1.22189 -3.62072)
(5.30846 -3.8337 1.1662)
(7.41262 -0.283602 -0.879915)
(3.21632 5.41391 1.00341)
(10.0831 0.699847 -0.0138567)
(10.9347 1.42827 2.06464)
(10.2994 1.6744 2.13134)
(8.82026 1.93785 -0.0268312)
(8.52709 1.56047 2.04068)
(7.85266 1.75333 2.32843)
(12.3558 2.24366 2.65823)
(8.54851 0.601688 -0.612822)
(10.3709 -0.351612 -0.108671)
(8.62693 -0.285396 2.9143)
(10.4062 -0.608017 -0.0650826)
(5.96581 3.10185 1.68339)
(7.10067 -0.776568 -0.0841922)
(8.90344 0.248177 0.00686358)
(6.27352 -3.89879 -0.195171)
(11.1332 0.107004 4.60479)
(8.34697 0.368967 -0.473035)
(9.9649 -2.4512 3.88591)
(12.0312 0.371188 3.40552)
(8.56098 -1.38943 2.03252)
(9.51741 -0.850795 1.99293)
(9.23933 -1.01962 -0.699419)
(5.73226 0.420904 0.288394)
(7.57728 1.92086 -2.07005)
(10.2421 -0.845099 -2.06233)
(9.81763 -2.43781 1.79322)
(9.90241 -0.490914 1.86171)
(6.04592 -0.314748 2.08013)
(8.95353 -0.221491 3.09018)
(9.33195 0.241313 -1.86619)
(8.68048 0.70007 -1.83872)
(8.60463 -2.55841 2.43462)
(7.86329 0.371732 0.164889)
(7.23799 -0.267886 -1.08516)
(8.57016 1.17527 2.93723)
(10.6911 2.54779 2.78202)
(10.5939 0.158892 -0.882807)
(10.0727 2.40109 0.0972331)
(8.64303 1.88728 -0.544822)
(4.94996 -0.873101 1.10079)
(6.50246 2.52293 -0.270987)
(7.78715 -0.764778 0.786986)
(9.74623 0.613457 -0.0189742)
(8.40609 1.92281 -0.0652632)
(6.31774 3.19819 0.370773)
(8.34893 0.309314 3.2756)
(13.9022 1.48926 3.18944)
(12.1007 1.20107 3.93664)
(7.03641 -0.139446 -0.369955)
(8.6396 -1.10996 -0.203293)
(7.70467 0.560604 1.96204)
(8.58123 -3.56765 2.07525)
(8.33842 0.519859 -0.00336891)
(9.07467 -0.111734 1.67861)
(12.7559 0.00237786 1.43202)
(7.56757 1.05366 1.96656)
(7.99688 0.911696 -2.19935)
(11.8089 -1.28419 0.478391)
(11.4412 2.48193 3.18424)
(12.4654 -2.50094 0.215542)
(6.74608 5.24453 2.35532)
(5.60318 -0.263977 0.148354)
(3.01954 0.390989 1.00373)
(10.4243 -0.306105 0.535999)
(7.98131 -0.728826 -0.773074)
(8.08471 -2.32424 2.72991)
(6.82995 -3.99451 2.3188)
(10.0651 -1.46372 -1.39189)
(2.6096 6.03954 0.825331)
(9.42782 1.71362 -0.633399)
(6.78148 -0.00151932 2.0368)
(6.83698 0.0326361 2.20977)
(9.11367 -0.650619 1.69806)
(6.26138 1.11923 0.864553)
(10.2551 2.67893 1.81235)
(10.4682 2.27402 2.06625)
(11.1404 0.543145 3.22464)
(10.1588 -0.047025 -0.0434596)
(8.41427 -1.54073 -0.014615)
(7.98154 -1.11422 -0.773657)
(11.6045 1.5015 1.45362)
(2.01553 -0.458583 0.313901)
(9.69445 -3.06066 0.673131)
(7.06224 1.36956 0.520192)
(8.96127 1.08582 -0.753145)
(7.13788 -1.428 -0.484273)
(9.30214 -2.25355 0.85992)
(8.3418 0.144647 3.16492)
(10.8057 -2.58168 3.41494)
(7.30996 1.72712 0.155976)
(10.765 3.00781 1.26287)
(2.87092 0.48787 0.69401)
(8.69455 1.95426 2.87755)
(6.13154 0.28604 -1.7812)
(7.66209 1.26858 1.70187)
(4.37582 1.96962 0.244135)
(8.32297 -0.625763 1.88725)
(6.6101 -1.67319 1.82489)
(11.6615 -2.47811 -0.210422)
(8.88838 0.62869 -2.63677)
(8.0316 1.05685 -0.00984145)
(9.6405 2.34683 1.83872)
(9.35077 2.63787 1.78621)
(11.6772 -0.941078 0.218844)
(9.96807 4.11478 2.44326)
(5.60834 0.084301 0.466381)
(7.62878 1.02167 0.230788)
(6.5639 -1.64608 0.921268)
(6.52152 2.02905 1.27655)
(11.0018 0.930865 -0.377934)
(9.72658 -0.420853 -0.694295)
(7.98392 1.24638 -0.0115833)
(8.06464 0.920629 -0.00541615)
(10.1045 -0.361427 -0.089844)
(7.84319 -3.39826 -0.573823)
(7.67057 0.00618263 -1.43146)
(9.10008 0.311745 -1.2911)
(10.1657 0.104645 4.39838)
(4.46817 -3.20196 0.908483)
(11.7793 -0.318287 1.11401)
(4.80262 0.348135 1.55717)
(5.77091 0.965476 1.48421)
(8.81584 1.45349 0.328033)
(7.85265 0.0136455 0.50608)
(3.93844 4.99228 1.0519)
(8.04307 -0.865034 -1.38014)
(8.02598 1.02604 0.000167682)
(8.01371 1.0282 -0.0127775)
(12.4559 -0.0492442 0.228533)
(8.27608 -1.1538 -0.916597)
(7.24792 -0.526542 -0.661601)
(9.65287 -0.525417 -0.301426)
(6.25328 0.86538 -1.81649)
(10.477 0.514809 0.0460977)
(10.7383 -0.821914 1.93928)
(12.6284 -1.06948 2.96248)
(10.2661 -0.493766 0.326478)
(9.95739 -0.048586 -7.61093e-05)
(10.2913 0.917102 -1.1957)
(9.68702 -3.08226 1.1549)
(9.75096 0.0135375 -0.425847)
(9.6765 -0.176886 -0.281453)
(8.95639 -0.579905 0.455325)
(9.42062 0.271234 0.376753)
(10.0939 -0.632485 -2.25513)
(8.84332 -1.50597 1.84786)
(9.76908 -0.400804 3.33319)
(7.48772 1.44417 0.138592)
(8.2798 -0.813011 -0.636412)
(7.18317 1.00162 0.0503963)
(7.32301 1.14547 0.0878041)
(6.33954 1.60427 -0.549204)
(6.75274 1.15205 -1.69714)
(8.05496 -3.04549 0.705107)
(9.7416 -1.2343 1.06813)
(9.79316 0.737995 -4.30066)
(10.6327 0.201867 -1.60991)
(3.77454 -0.138424 1.06715)
(5.36409 -0.79306 1.25038)
(9.09577 -1.5312 -1.06412)
(8.1643 0.184903 -2.00431)
(9.53828 -0.31309 0.836361)
(8.48704 2.39087 -0.890579)
(7.92873 1.165 0.0552853)
(9.17011 -1.78648 0.125688)
(5.25622 1.05432 -0.753662)
(7.77767 -0.906041 -0.997463)
(8.72895 0.182337 0.682819)
(12.0088 1.98555 0.317704)
(10.6775 0.849841 3.57594)
(8.83953 -1.00583 0.124087)
(10.358 0.189972 -0.0749682)
(10.29 -0.339256 0.0264315)
(5.87854 0.365814 1.76311)
(7.78328 -0.778367 2.47591)
(9.19811 2.0733 -0.519727)
(3.98684 -0.45026 1.26228)
(10.3077 0.66589 3.63955)
(9.51832 -1.53587 3.33707)
(6.46245 1.07737 0.228533)
(10.3616 -0.237919 -0.00011887)
(9.08218 -1.17947 3.51178)
(8.1651 -0.422694 3.09447)
(9.15266 -1.32299 -0.981072)
(5.25174 3.6523 1.2004)
(8.88058 -3.0075 0.933493)
(9.53691 -1.14701 -2.62792)
(3.14105 5.67429 1.17691)
(8.38385 1.39022 -0.00713397)
(2.984 7.26645 1.13776)
(10.72 -2.28975 0.513747)
(6.42034 1.09632 -0.522918)
(10.2429 -1.62704 0.0692466)
(8.01265 0.982966 -0.0292601)
(7.92509 0.983768 -0.00146653)
(5.92645 1.04108 -0.618314)
(8.66081 -3.83725 1.7317)
(10.6123 0.940421 1.51897)
(6.47885 2.41728 -0.167502)
(9.92747 -1.93333 3.55567)
(7.22437 1.15228 1.7444)
(10.6986 0.0671223 1.3896)
(9.88458 0.332163 -1.52638)
(8.30461 -0.958549 2.14322)
(10.4724 -0.202591 2.7359)
(5.87284 0.974982 -0.00127521)
(9.45214 -0.850973 3.10784)
(7.28098 1.22176 -0.023191)
(9.79043 -1.80519 0.522119)
(9.0109 -1.96745 3.292)
(10.0589 -2.3023 3.76768)
(9.71172 -0.607733 2.25686)
(3.19789 5.69866 1.25005)
(7.90423 -1.52548 0.312863)
(12.3027 -1.90472 -0.106183)
(9.37841 0.764593 -0.666185)
(9.47832 1.65027 -0.167025)
(11.6037 -0.688712 -1.9224)
(8.91776 1.33285 -0.078011)
(11.7635 0.0496084 1.84326)
(6.48511 1.06497 -1.70769)
(6.04785 1.10607 -1.07182)
(4.82445 -1.22732 0.977508)
(9.10066 3.93939 0.840786)
(9.54306 -0.412611 -2.43174)
(10.5076 -2.48435 2.91052)
(12.613 -2.02358 1.62514)
(3.11355 4.67538 -0.543717)
(9.04973 0.835458 3.39576)
(10.2226 0.0536579 3.94458)
(11.7192 -0.686092 1.5212)
(5.76162 1.09356 -0.398346)
(9.60335 3.16274 1.13378)
(4.56213 0.813169 -0.028873)
(4.39526 0.563216 -0.11456)
(9.54155 1.37013 -0.0435562)
(10.6695 -1.16402 0.164682)
(13.8313 0.78159 2.87689)
(9.45346 -1.12891 2.67122)
(6.01185 0.0482347 1.00622)
(7.62717 -2.2208 0.218911)
(10.3186 -0.5906 -0.257279)
(6.96638 2.00151 -0.415272)
(8.11222 1.12582 -0.0205122)
(8.0899 1.22226 -0.0216427)
(7.81207 -5.95522 1.4206)
(8.98442 -0.497901 -1.59999)
(7.81949 1.35411 0.0495541)
(7.62664 1.11462 0.0913126)
(4.99276 3.3331 -0.598409)
(9.63875 1.36645 -0.0427246)
(11.6088 -1.02899 4.86945)
(7.12794 0.97755 0.248112)
(9.21976 -1.812 -1.52851)
(10.4296 -0.771145 -0.310182)
(7.76532 1.30061 0.0495025)
(11.4769 3.29708 3.21291)
(5.60739 -0.48888 1.26113)
(11.8355 -0.900013 -0.640328)
(12.4879 -2.13381 0.227946)
(10.2806 1.5458 3.17276)
(4.27649 5.30592 2.5122)
(9.75923 2.38812 -0.571433)
(10.8243 1.84966 -1.24475)
(6.93121 1.32216 -0.879851)
(7.57974 -0.591956 0.749708)
(7.1992 1.83948 -1.23762)
(9.4411 1.8648 -1.14114)
(9.43602 -0.479707 -1.22585)
(8.36411 0.659305 -0.00498867)
(4.70123 1.70434 0.97965)
(7.75198 -0.234324 -2.30426)
(7.1667 -0.511421 -1.81162)
(6.39556 1.44242 -0.341444)
(10.1163 -0.0728111 -0.0989967)
(10.0002 0.561207 -2.10756)
(7.77405 1.18613 0.0698683)
(9.60409 0.088115 -1.05305)
(9.06896 -1.55556 -0.647211)
(9.90698 -0.317583 0.0144228)
(7.28689 2.16367 0.102153)
(10.0246 1.19003 -0.36855)
(7.95355 0.0926961 0.333109)
(2.93163 -0.663403 0.258173)
(3.96368 1.0718 0.744653)
(6.76911 3.95618 -0.887628)
(4.99958 -4.30302 1.38304)
(8.08222 -1.17055 -0.414975)
(8.92609 -0.457538 3.69983)
(8.65136 -0.32457 0.66653)
(3.28755 -1.41395 -0.193435)
(7.65012 1.24042 -1.30028)
(7.6023 0.296841 -1.14397)
(10.9827 -1.2373 -0.340897)
(6.52262 0.644042 0.481522)
(12.2165 -1.35591 2.44595)
(10.1664 -1.1626 -0.387057)
(9.20551 0.467785 0.23699)
(8.55536 0.158217 0.162143)
(7.08457 0.950517 -1.46579)
(7.81551 1.6244 1.42683)
(8.04711 -1.38399 -0.401253)
(9.55149 -0.52028 0.308605)
(10.4858 -1.30917 -1.11138)
(10.8379 -1.15799 -1.44207)
(3.36742 5.09967 0.745995)
(6.98353 2.66181 -0.482918)
(12.2452 -0.161411 3.82762)
(10.1328 1.30264 0.601793)
(10.7366 3.02016 1.90007)
(8.55425 1.7321 1.12274)
(10.318 0.620727 -0.573265)
(6.00945 1.2735 -0.718397)
(6.08479 1.53267 1.25383)
(12.9999 -2.10058 0.542763)
(11.5939 -1.98294 -0.126546)
(11.6981 0.461085 2.09834)
(8.28253 0.975494 -2.11424)
(8.07188 1.1463 0.012042)
(8.12066 1.13247 -0.00277624)
(7.27458 0.723929 -1.09329)
(10.3404 -0.0202765 0.0503204)
(5.29548 -1.05026 1.14897)
(10.695 2.4186 2.50505)
(9.08708 1.08542 1.41393)
(8.92212 1.96638 1.65413)
(8.99806 -2.46136 -0.107875)
(9.60164 -0.541965 1.74845)
(7.25088 1.33581 -1.29169)
(8.28827 1.21614 2.29312)
(8.1572 1.24315 1.75297)
(3.06082 0.476138 -0.466386)
(5.3406 0.497193 -0.263148)
(11.4097 1.2463 1.78842)
(7.79384 -1.03728 1.85973)
(10.287 1.58033 1.98134)
(10.7675 1.99608 1.94582)
(9.11998 -4.97772 3.0226)
(6.36686 -4.01785 1.51528)
(8.45425 2.83181 -1.83643)
(8.14727 2.6169 -1.79968)
(10.0683 1.40776 -0.51892)
(10.4778 1.68438 -1.0329)
(12.0031 0.603551 0.747428)
(7.91638 2.61063 -0.568637)
(8.21527 2.48415 -0.646635)
(6.66086 0.498931 -0.140483)
(11.4819 -2.5623 2.50203)
(7.20484 1.45106 0.199545)
(6.67895 1.68239 0.178527)
(1.87712 5.3473 -0.535291)
(13.8352 0.0113835 -0.406019)
(5.84611 1.32309 -0.378703)
(8.54837 4.63575 1.57774)
(10.3049 0.0640648 -0.188051)
(10.2425 -0.118982 -2.03583)
(6.55663 1.04439 0.844654)
(9.97047 -0.510001 1.03689)
(4.6825 0.10534 0.450114)
(9.24686 -1.97422 3.44785)
(10.5537 -1.5957 2.98394)
(9.87527 -1.123 3.2413)
(6.93128 -1.60844 -1.64917)
(9.96032 -0.359076 0.0919695)
(6.65951 -2.12449 0.429143)
(10.7689 -1.11439 -1.55789)
(6.70454 3.36752 -0.355907)
(3.74293 4.99918 0.399369)
(9.12798 -1.51462 3.62603)
(10.2823 -1.16118 1.198)
(7.63254 -3.83353 -1.63726)
(8.34628 -3.53937 -0.435312)
(8.10457 0.846813 -2.85438)
(6.8417 -0.783402 -2.16606)
(3.40323 1.80677 0.397507)
(8.63387 -0.85008 -1.26093)
(9.06788 -1.06429 -1.22589)
(11.969 0.101604 -1.2959)
(9.55958 2.66432 -0.52629)
(8.75831 -1.07462 1.66654)
(10.6062 0.354283 -1.77761)
(10.7703 0.372796 1.82562)
(8.18428 0.986051 -0.0337964)
(10.0538 -0.423082 2.61589)
(7.9122 -4.1537 2.11206)
(9.50987 -4.85545 1.6918)
(8.06705 1.42372 0.0127419)
(11.1073 -0.406525 -1.61056)
(5.41628 5.18584 0.912433)
(10.3351 -2.75226 1.69438)
(7.89428 0.342977 -1.73766)
(8.787 1.33805 -0.419926)
(9.52221 0.201382 1.9189)
(8.95958 -0.413036 2.46777)
(3.90969 -0.980683 -0.236957)
(10.8211 0.481022 0.142951)
(10.2778 -2.82979 1.65624)
(10.0392 0.0439149 -0.00155722)
(5.21865 -0.659497 0.706635)
(5.34799 -0.909618 0.21454)
(8.33218 -2.74454 2.58179)
(8.20178 -0.370482 0.553207)
(9.25644 -1.84196 -2.85687)
(8.74667 -0.472745 0.879104)
(7.5421 1.57109 -0.784816)
(7.76277 -3.14938 1.48791)
(10.0136 -0.247366 0.361882)
(9.72186 -0.98933 3.36479)
(7.07967 4.02889 1.20041)
(7.71848 -0.433033 1.41839)
(8.00162 -1.46929 1.52366)
(10.0988 -0.333246 0.0599585)
(10.273 -0.400621 -0.0865724)
(7.42821 0.399783 -0.0792374)
(8.72284 0.563965 0.00792623)
(7.12233 -1.37784 1.53612)
(10.2988 0.11282 0.00154785)
(10.9827 3.05416 3.49744)
(9.25946 -0.246528 -3.9095)
(7.80447 1.97189 0.0971051)
(7.0401 -0.656079 -0.820581)
(8.59344 -2.17139 -0.0934077)
(9.06649 1.36054 -1.2819)
(9.01794 1.30359 -0.538207)
(11.1593 1.03095 0.155679)
(9.53138 -0.664938 2.91835)
(7.78588 -1.66761 -1.66203)
(7.05451 1.36882 -0.0758857)
(6.1685 1.20445 -0.140542)
(9.16282 1.59509 1.55951)
(6.4586 -2.46364 -0.871063)
(8.03073 0.985299 -0.0291366)
(8.16605 1.3209 -0.0142018)
(9.04057 2.30831 -2.60175)
(7.05549 -2.10422 -0.596781)
(11.2104 0.189782 0.703531)
(5.53653 0.5772 0.388375)
(9.55478 -0.00488553 0.0019088)
(7.40082 2.22765 0.035007)
(7.43629 2.24213 0.143415)
(9.29516 1.23105 -1.45338)
(10.3993 0.0927748 0.0214243)
(10.4473 0.145144 -0.147466)
(8.28608 2.99159 -1.52569)
(7.74868 0.797558 0.0438412)
(9.25647 0.663736 0.000958322)
(9.21516 -0.38776 0.276332)
(12.1123 -2.21758 1.34518)
(10.1782 -0.518494 1.12498)
(9.47966 1.22628 -0.15433)
(6.92068 0.217622 0.427777)
(9.74149 3.06172 -0.130303)
(9.95945 0.15183 -1.1381)
(7.63157 0.722435 -2.93719)
(11.8606 1.9058 3.12763)
(7.90871 1.43795 -0.590261)
(10.3026 -1.51364 3.20681)
(9.938 -0.0897628 -2.82873)
(11.2212 -0.269027 -2.4613)
(11.4701 0.987908 3.88101)
(11.5888 0.338933 -0.694981)
(13.8691 1.11989 2.58085)
(9.96975 -0.145075 -0.0186547)
(7.07773 0.674913 -0.426137)
(8.16156 1.5784 -0.306993)
(7.51683 -2.35066 1.48049)
(4.8714 0.336227 1.00199)
(9.76133 -0.922891 2.00169)
(11.9002 -0.317304 1.39076)
(9.41264 1.72304 -1.24948)
(8.90665 0.879233 -2.50861)
(7.85976 1.75475 0.0173476)
(7.87641 1.82415 0.0709057)
(8.32588 0.445884 -2.68072)
(7.59318 1.41199 0.190861)
(7.54291 0.396156 -2.88492)
(9.85574 -0.581998 -0.0173704)
(9.5264 1.3888 -0.14674)
(10.3481 0.403394 0.210826)
(11.0328 -1.73912 -1.73643)
(6.75823 -0.927983 1.86738)
(9.57071 -0.454581 -1.88281)
(11.4948 0.213137 3.92237)
(8.71145 0.0161096 -1.76917)
(9.67997 0.77123 -2.41999)
(6.8686 1.53613 -0.368695)
(8.10339 0.167614 2.30337)
(11.5548 0.593527 4.00712)
(12.0775 1.01868 2.70477)
(7.42977 0.142059 -3.03237)
(6.661 1.67091 -0.448023)
(6.73992 1.44771 -0.435867)
(7.65804 0.16539 -1.08559)
(8.95081 -0.653937 -1.79253)
(8.36857 -0.217958 -2.67201)
(9.17582 -1.55275 -0.836095)
(6.89718 1.09202 0.13512)
(11.0692 -1.13868 -1.71645)
(2.79511 -0.491518 0.0543519)
(8.70151 -0.755908 -2.72342)
(8.02238 1.09229 -0.0181021)
(7.05059 -2.94461 -0.180547)
(6.1519 -2.48887 0.220004)
(6.74664 0.963104 0.82667)
(8.28454 1.93829 -0.0378188)
(7.06523 0.763747 1.20483)
(7.73926 -0.562081 0.891142)
(7.91497 0.37424 -2.46471)
(9.19312 -1.13258 -2.0656)
(9.73862 -0.270155 -1.9878)
(9.15674 0.261526 -1.6274)
(6.75228 1.51994 0.0550949)
(8.69611 -1.39051 -1.45321)
(10.5014 0.809799 -2.42439)
(6.08112 2.18028 -1.24815)
(12.0688 -1.11788 -1.04923)
(8.46041 -0.775698 -1.27716)
(6.74247 0.798971 0.302898)
(6.33027 2.83804 -0.15929)
(7.63892 -1.14523 -3.63526)
(9.60578 -0.0990961 0.420732)
(10.5262 -2.07858 1.00648)
(9.7498 -1.9901 -2.35219)
(8.39083 -0.293923 -3.40551)
(7.665 1.23293 0.0580341)
(7.36152 1.63647 0.0949015)
(7.77898 0.728106 1.58029)
(10.2491 2.05368 1.54162)
(7.68929 -0.0191462 0.204227)
(6.82476 0.563816 -1.73585)
(6.33121 1.65477 0.00135089)
(9.92691 -1.29793 -0.286224)
(5.56206 -3.11131 0.44679)
(5.105 -3.98171 0.101649)
(10.4708 -4.43165 2.06516)
(11.5869 -4.78354 2.38749)
(8.19428 -1.67843 1.67984)
(10.4368 -0.944168 0.672592)
(9.53517 2.67001 3.32694)
(8.43304 -1.26021 -0.288262)
(9.27231 -1.01629 0.46395)
(10.204 -1.26288 -2.19963)
(8.10818 -0.619095 -3.87599)
(12.1331 -1.26564 3.58122)
(6.51623 1.98406 -0.563396)
(7.81366 1.18198 0.110672)
(3.97868 -0.283904 0.462897)
(12.7497 -0.96234 0.994361)
(11.2195 0.896646 2.70223)
(8.28774 0.175896 -2.69976)
(10.1495 -2.0387 -0.353971)
(6.27496 -0.81876 -0.868501)
(4.80755 -2.59715 -0.618862)
(6.84536 0.900443 -2.26776)
(6.66626 -1.57157 1.17737)
(9.34503 -1.12493 1.0681)
(9.87543 -0.82833 -0.492661)
(8.07562 2.15253 -1.79589)
(7.82572 -1.98223 2.46381)
(8.65024 -3.32715 0.501957)
(10.281 -1.26431 3.78842)
(6.39363 0.235986 -0.79202)
(3.97902 1.75788 0.817473)
(8.63612 -0.516261 -0.374427)
(9.72888 1.28627 -0.868544)
(13.2962 0.722197 1.48418)
(7.24236 -1.9389 0.4887)
(8.72999 0.00205727 -3.17129)
(11.8488 0.657014 1.53194)
(10.3788 -1.62169 0.124577)
(8.92643 -1.1965 -3.07721)
(10.2672 0.0448345 0.0121078)
(7.79235 0.771127 0.0756206)
(7.55864 0.739784 0.0945148)
(6.16167 4.45767 1.0808)
(8.09129 1.16777 0.020118)
(9.24081 -1.62071 2.96797)
(5.60043 -4.75209 0.862186)
(11.2528 0.830175 -0.394339)
(11.664 3.55957 1.7373)
(7.6135 1.78549 0.205202)
(6.9464 0.180017 0.274573)
(5.06766 1.21963 0.474606)
(10.0071 0.374088 -0.509137)
(10.3834 0.0857996 -0.066671)
(11.8057 -0.465416 1.18414)
(8.34151 0.165582 2.90097)
(9.82677 0.718463 3.07247)
(4.58308 -0.078135 1.28433)
(7.56339 0.523296 -2.67228)
(7.80904 -1.42659 -2.76165)
(10.0214 -4.30154 1.47935)
(8.71074 -1.44038 2.77395)
(10.4013 1.52172 0.570457)
(14.0225 0.784748 3.48005)
(11.6263 -0.240037 0.00654412)
(9.74624 -1.56515 -1.16904)
(8.89448 0.53498 0.00700933)
(9.72451 -0.111488 -0.448679)
(8.64709 0.224299 1.36841)
(7.46341 0.248322 1.29799)
(9.39156 1.21654 -0.0225842)
(3.90699 0.728594 -0.0202303)
(11.4136 1.03831 0.671759)
(9.81234 -0.550851 -0.199826)
(13.0451 2.35319 2.77917)
(7.29948 -1.00767 0.855055)
(13.9292 -1.053 1.48723)
(2.55523 5.30017 1.54949)
(12.8334 2.36469 1.84388)
(6.52636 1.62318 1.7169)
(10.7809 1.28821 -1.144)
(9.14926 1.04561 -0.0297802)
(1.38573 0.993614 1.43725)
(7.68974 -3.87545 1.54434)
(6.4163 1.34547 -1.10682)
(5.83743 0.250794 1.3003)
(9.27043 -1.51614 -0.957432)
(8.73143 1.13649 -1.94939)
(11.8068 0.633321 1.17298)
(7.50597 1.02404 -2.14354)
(8.52309 0.567968 0.0114347)
(5.76373 1.79735 2.58233)
(10.2001 0.186851 -0.461444)
(6.23443 1.55019 -0.100752)
(9.11522 2.36635 1.063)
(9.37986 1.65846 1.09611)
(6.11915 -2.91669 0.58024)
(5.79969 -2.49547 0.259152)
(7.434 -2.90823 0.226189)
(9.59011 0.30792 -0.25139)
(11.5478 -0.830166 1.32188)
(11.5037 -0.561003 0.325061)
(7.06652 -1.82341 1.08489)
(7.20851 -1.23347 -3.40219)
(7.27211 0.795654 0.102798)
(7.47359 0.843073 0.090869)
(11.4977 -2.55099 1.20748)
(5.77418 0.714684 -0.163195)
(8.62495 -1.77192 0.886212)
(7.99478 1.72071 0.0177971)
(7.0931 2.36113 -0.420586)
(11.0647 2.08313 2.0732)
(14.2326 -0.6762 2.84532)
(2.28708 4.96563 0.449888)
(12.8223 2.35511 -0.0806838)
(8.25317 -0.993528 -0.684564)
(9.0081 -0.827287 -0.543198)
(9.08446 -0.960012 -0.556391)
(6.19781 -2.17023 0.191071)
(5.95848 -2.4539 -0.410677)
(8.09264 1.1064 -0.0328495)
(9.45471 2.38299 3.15407)
(5.97692 0.410477 0.715451)
(10.3505 -0.280906 -1.03481)
(9.5274 -0.960932 2.97838)
(9.82195 -0.790537 3.27139)
(4.94128 -3.63004 0.536032)
(10.2335 0.749106 -1.79106)
(7.98825 -0.509518 -0.843185)
(6.98787 -1.72448 1.95182)
(10.7212 2.91567 0.435154)
(7.94725 1.23119 -0.0185448)
(12.4552 -2.20658 1.51112)
(10.7296 0.109757 -0.858655)
(8.37891 1.01067 0.00715767)
(11.4136 0.0518492 2.05624)
(8.78432 -0.759864 -3.20985)
(8.27215 -0.162089 -2.12387)
(8.17623 -2.69253 -0.0457477)
(10.329 -1.39541 -2.26998)
(8.97716 -1.30231 -0.0313078)
(7.19633 -0.461385 -2.19108)
(7.01149 2.58229 -0.0986579)
(6.67074 2.35061 -0.283906)
(10.4031 3.23108 0.119982)
(6.85353 0.0460105 -4.41947)
(7.78129 0.189173 -1.09088)
(8.09437 -0.288399 -1.44048)
(9.99173 0.494069 -0.0280464)
(10.0155 0.424939 -0.0132413)
(7.28887 0.343415 0.129937)
(11.5705 0.558084 1.47854)
(5.92757 0.776275 0.83026)