/*--------------------------------*- C++ -*----------------------------------*\
| =========                 |                                                 |
| \\      /  F ield         | OpenFOAM: The Open Source CFD Toolbox           |
|  \\    /   O peration     | Version:  2212                                  |
|   \\  /    A nd           | Website:  www.openfoam.com                      |
|    \\/     M anipulation  |                                                 |
\*---------------------------------------------------------------------------*/
FoamFile
{
    version     2.0;
    format      ascii;
    arch        "LSB;label=32;scalar=64";
    class       volScalarField;
    location    "10";
    object      epsilon;
}
// * * * * * * * * * * * * * * * * * * * * * * * * * * * * * * * * * * * * * //

dimensions      [0 2 -3 0 0 0 0];

internalField   nonuniform List<scalar> 
76405
(
254.346
251.394
92.5645
77.6075
269.576
235.536
102.305
227.325
180.999
275.689
415.004
516.133
239.472
160.541
143.479
43.7026
179.206
43.9312
49.3469
51.2438
367.97
108.083
366.681
210.638
64.032
245.026
166.588
64.1824
107.285
692.189
98.4409
292.096
73.7096
189.648
70.692
185.406
551.113
52.1403
41.3724
154.129
285.965
331.226
347.958
291.593
224.7
102.01
156.502
91.7037
1119.51
44.1159
132.022
111.885
103.215
189.148
58.2366
123.399
890.901
348.645
152.09
107.968
408.95
329.012
297.87
68.7702
293.399
338.143
213.807
170.312
500.268
119.571
118.877
124.762
76.8147
117.766
375.517
401.552
52.5137
158.822
207.623
204.539
104.167
97.11
116.332
604.928
678.948
206.013
74.4781
898.611
221.513
169.402
442.286
289.081
155.802
161.464
51.7783
447.047
460.891
123.017
119.245
54.1033
54.4334
367.468
56.7287
51.6579
93.3968
803.578
215.263
44.4918
286.743
206.656
266.875
203.833
80.253
218.737
440.284
351.237
434.998
374.053
200.522
834.105
236.529
288.991
115.414
109.948
224.397
323.364
265.705
126.338
208.172
76.5967
87.3246
75.5451
34.0129
389.179
60.236
220.069
197.918
96.2425
52.8582
50.8412
43.5615
41.7465
43.5557
51.5981
76.6618
157.885
54.2856
98.3632
121.88
57.7527
102.939
138.584
215.326
77.6857
79.1258
43.8381
284.302
176.448
173.113
219.338
122.813
173.514
163.815
275.501
257.622
340.654
262.502
201.579
215.028
259.729
379.735
76.8407
100.79
71.7685
388.349
167.594
1328.12
1248.85
213.951
86.7528
85.6951
122.495
65.9793
64.824
202.107
210.096
76.3563
294.064
244.511
265.886
273.194
121.847
221.423
53.9607
33.7714
148.46
83.1412
388.399
176.033
64.4262
211.356
269.01
123.749
232.707
254.001
290.821
342.352
66.7353
151.712
612.021
130.494
175.517
213.964
204.077
207.481
202.367
78.9596
117.951
255.733
78.8673
347.259
141.079
110.843
98.5611
191.24
48.1534
65.5404
173.55
250.149
98.0973
109.171
194.95
489.949
49.9098
236.72
237.802
195.962
42.6389
563.598
151.2
1767.16
96.7266
184.086
229.451
174.247
332.037
73.3592
165.212
127.257
66.6388
44.0473
259.092
49.8511
39.3481
320.359
624.774
579.644
414.558
121.194
131.994
43.2775
126.011
44.0031
114.975
508.423
54.9333
173.798
110.264
144.744
338.441
168.865
59.4226
147.45
235.195
98.2944
96.5023
50.0794
261.161
169.775
107.71
126.226
41.1819
37.0895
310.485
55.7834
186.627
165.125
49.3175
254.488
159.935
37.7144
403.227
49.936
49.3232
74.3603
52.8892
57.6836
168.149
131.096
47.0732
56.4342
46.6065
160.073
71.657
48.8165
72.6113
39.3194
271.135
44.8611
151.54
103.918
84.4266
157.073
212.434
79.8093
60.7139
87.0334
955.943
371.981
176.875
156.25
73.7839
566.636
152.836
45.5428
281.189
120.226
180.649
57.7588
157.687
266.941
197.442
155.071
129.126
451.077
125.997
387.923
121.267
348.264
314.265
46.0881
94.1742
150.277
41.5206
38.8901
114.767
227.178
303.966
183.153
127.86
140.819
110.272
105.602
301.815
349.857
387.663
292.228
197.212
200.928
41.2782
242.499
286.88
194.191
44.2061
235.779
43.9252
27.456
406.605
44.0508
138.194
315.743
152.642
395.363
183.695
188.797
47.33
155.719
293.496
166.8
273.166
310.711
54.2405
49.8127
68.0479
164.644
166.28
200.271
65.6907
77.5132
915.549
44.746
219.372
136.837
192.963
70.6125
150.887
249.992
54.344
65.9232
53.4792
240.02
145.943
505.114
219.638
165.475
49.3106
187.731
54.6544
118.604
385.653
151.746
244.712
160.994
143.617
118.451
49.351
52.3033
150.072
228.412
233.856
164.779
76.1001
241.638
114.421
55.1026
52.0145
190.577
81.4689
85.9187
115.351
55.1829
207.89
108.732
52.1583
48.4277
64.1783
383.574
77.2422
128.272
169.09
275.747
294.864
98.933
59.2971
321.196
446.13
69.9211
238.306
128.274
95.5029
292.641
103.624
204.993
59.863
83.2823
102.424
315.239
179.359
60.6051
53.867
664.127
102.875
222.245
128.367
145.651
231.419
93.997
164.773
181.478
139.245
62.2168
129.799
162.1
257.431
58.1814
64.1728
342.277
158.789
158.983
287.867
169.782
309.161
91.9591
492.229
109.083
67.3292
157.662
61.7402
300.094
42.2283
413.772
167.701
73.2471
54.8349
60.8766
120.477
413.689
52.5714
213.7
199.044
65.0765
125.346
40.7244
503.763
56.2573
45.049
46.4473
558.645
520.793
49.0657
205.662
57.8607
1040.89
130.309
137.969
1005.3
199.987
121.585
886.032
124.975
82.9105
474.283
502.867
251.066
36.9507
471.204
654.813
173.869
264.035
544.875
188.097
258.935
97.2644
160.157
384.433
65.3817
58.9234
56.7396
97.4706
246.807
179.784
297.156
152.647
101.499
54.2677
267.405
538.168
75.7263
41.0279
227.191
185.884
57.8123
73.7598
342.094
250.824
261.08
331.892
123.233
289.485
1091.4
254.21
52.9894
134.373
89.3089
231.362
133.091
296.157
72.265
45.6649
46.1649
127.315
55.115
178.799
52.2937
46.7087
150.777
73.3582
465.981
117.817
94.4085
303.337
80.7434
531.793
62.3491
39.4304
51.2874
44.6378
88.6305
84.9341
84.466
145.413
794.904
1157.34
154.661
221.183
141.942
161.682
371.993
149.218
38.1619
316.843
418.939
728.164
247.48
67.242
51.5349
623.895
600.697
635.642
310.588
172.308
182.808
222.578
46.0123
81.8344
305.574
735.171
149.967
300.548
52.695
51.9061
273.32
70.8255
267.913
77.0861
259.876
46.2138
211.757
88.5015
173.997
53.3778
86.1611
239.454
308.607
201.268
621.611
512.798
71.7741
461.373
114.068
48.137
99.465
169.989
120.452
112.181
260.1
243.284
660.944
239.659
194.691
244.082
56.6758
138.278
92.7669
116.982
266.663
143.411
62.865
87.0108
366.249
582.446
231.432
367.435
63.2932
289.805
235.867
145.303
71.6896
57.6702
367.196
159.498
123.743
113.252
131.621
443.205
693.036
410.296
139.544
132.127
166.597
316.767
329.486
198.363
214.731
144.781
802.685
192.766
48.2248
226.345
900.214
52.4496
50.7584
133.091
1851.66
1336.86
99.0328
117.464
1229.28
57.8349
304.831
44.7448
137.944
214.833
673.824
71.4699
99.02
47.4053
43.8419
535.942
57.2235
84.6506
230.984
183.431
249.423
102.845
186.398
306.687
317.153
167.909
136.013
273.265
50.8825
1223.33
56.8782
54.6416
166.846
85.5153
172.902
52.5135
49.3341
474.778
238.497
203.128
46.4457
301.338
61.7276
244.345
144.058
62.6304
76.7503
340.695
114.855
180.048
122.119
43.7229
42.0908
278.933
234.269
234.895
440.154
169.788
364.241
40.2357
65.1436
125.696
214.259
99.5895
199.957
119.876
118.773
1336.01
1355.82
49.9889
57.0086
178.562
171.366
505.913
50.0613
247.044
47.2021
76.8482
47.7355
773.247
1868.14
557.551
136.765
204.128
182.307
35.8986
198.201
143.122
68.9872
44.7496
46.3295
200.696
144.108
230.675
152.769
330.816
303.374
185.661
34.3352
515.163
104.278
251.691
47.0796
92.8177
53.9819
213.479
222.786
329.355
227.895
49.9217
52.18
70.6395
344.827
298.964
201.599
205.718
169.55
227.676
274.54
275.799
210.891
54.3845
53.4028
87.0612
748.224
239.138
55.6756
47.1521
64.4694
62.9687
175.124
67.1459
44.4949
57.368
52.0724
50.5901
50.2435
78.456
52.5665
238.212
98.9866
72.3237
54.8134
361.083
449.429
70.0705
56.2341
259.395
191.704
56.1741
57.4461
57.1762
148.731
370.105
522.944
566.284
235.46
101.179
164.766
57.6663
52.8302
85.4736
305.364
58.0744
58.0657
147.961
47.4427
50.8737
57.0805
482.308
292.78
133.486
203.475
308.7
318.359
136.982
152.692
366.912
72.8167
247.345
464.572
120.347
111.621
92.8622
200.803
128.145
175.171
156.029
47.0073
99.4243
48.8283
80.9701
1201.61
363.618
286.049
183.194
55.3054
91.5617
145.307
153.484
191.678
198.207
54.7842
51.6872
56.0088
158.255
135.158
198.346
262.962
217.115
240.394
222.295
228.852
241.024
276.472
194.299
51.2495
209.664
42.6931
57.1288
260.098
225.464
218.606
238.778
94.8276
252.895
192.89
180.186
199.028
844.221
369.229
414.274
42.4204
355.127
263.629
74.0536
975.408
64.9098
231.441
188.982
463.486
52.6315
188.368
746.125
162.608
290.422
49.8568
50.1496
63.219
56.915
120.381
178.245
128.172
106.574
143.282
178.196
214.088
190.489
94.5004
401.407
343.19
281.082
44.0403
220.322
136.075
106.908
91.4738
294.286
248.633
37.7928
357.076
306.372
50.9687
478.374
188.602
37.1994
109.955
376.295
86.1223
160.252
53.2437
141.762
142.456
49.8077
259.34
46.1798
549.324
51.134
128.696
277.903
113.476
194.994
133.075
187.251
172.091
264.207
169.63
118.338
157.142
155.486
135.842
50.1091
46.4795
158.688
184.798
320.571
432.454
1249.08
137.505
99.1267
181.865
432.786
96.583
56.3468
58.0512
59.0744
83.9633
51.7038
243.356
286.576
25.9168
217.603
294.39
57.3388
56.4679
114.577
112.316
71.174
189.708
48.2953
80.2631
49.9051
315.889
171.661
425.678
55.4832
42.5947
34.3786
117.109
64.1683
393.523
55.4896
278.743
52.6329
219.592
224.439
238.612
318.01
1270.44
331.425
74.7109
203.535
126.716
48.7935
59.0778
79.9689
35.9916
226.489
139.394
135.583
733.031
185.545
48.2178
904.808
527.768
44.7158
470.735
135.767
535.963
199.47
61.6336
56.1212
54.8783
43.1656
80.4325
853.074
91.998
50.5267
399.442
146.925
136.699
43.5264
53.7207
72.2121
147.629
123.898
319.52
140.918
177.766
235.723
86.4931
150.383
48.8172
58.8105
213.803
236.601
299.641
100.653
482.581
512.312
384.442
49.8004
635.097
164.065
1829.06
55.4524
1042.88
423.582
547.729
165.065
138.662
355.379
336.999
41.2067
51.8507
589.196
593.287
125.607
807.453
1043.95
67.5691
58.4039
1285.26
51.9131
318.884
71.9044
1052.37
47.1831
161.672
168.552
56.4272
163.581
185.622
53.5629
304.598
122.255
129.133
226.591
377.87
62.2745
48.3816
68.8665
63.6879
99.1639
53.1596
132.598
280.891
84.0852
265.801
947.509
930.126
50.2726
63.8892
271.166
298.851
136.048
98.3478
704.171
52.6924
57.3947
229.447
36.0778
57.5378
56.4904
55.4852
287.952
64.1995
90.4376
146.775
270.547
181.394
341.659
197.49
500.435
435.994
144.767
57.4807
189.494
929.183
310.455
43.9474
46.7753
496.591
334.162
235.342
523.365
41.1709
198.624
240.061
202.241
235.651
44.9795
61.4342
45.0112
257.827
227.015
241.346
47.6394
362.382
45.0832
335.718
56.5661
52.0453
251.352
87.6569
531.85
171.218
162.454
341.757
53.8232
153.158
204.052
428.143
68.6716
167.014
548.962
194.057
236.234
61.877
174.758
51.9965
58.1458
46.3316
112.403
71.0831
431.769
306.854
56.8539
368.839
314.331
1123.65
209.679
730.988
650.023
110.905
58.1759
1643.99
111.942
110.642
672.479
83.4511
449.264
343.293
563.946
632.574
101.744
541.027
168.823
46.4587
37.2259
201.184
168.607
46.7492
42.7628
209.287
51.6738
64.7048
109.885
192.625
44.5671
192.363
441.032
292.947
340.611
131.971
147.348
412.828
413.784
168.464
172.444
243.416
419.676
50.9447
59.0983
378.041
401.887
105.424
263.346
41.0498
302.819
46.6278
197.065
136.79
170.045
45.8512
113.765
488.971
50.3302
33.5605
57.5106
475.009
536.274
539.784
136.796
196.239
108.975
104.625
92.1963
97.3191
330.998
802.486
181.942
489.668
490.603
781.204
714.16
596.847
48.2335
44.2754
104.497
286.353
550.509
228.036
138.474
173.119
154.444
34.4304
67.0168
43.5963
41.3961
45.4007
45.4582
703.531
44.7342
49.3997
509.062
280.033
52.3576
51.004
224.643
1261.98
53.0558
66.6558
71.9945
57.8924
58.0808
46.9928
490.211
550.326
138.166
49.5657
568.631
507.682
331.446
92.1147
55.7583
54.6891
1059.84
273.878
312.66
995.792
163.364
135.479
401.251
64.641
105.692
300.722
435.283
747.658
141.389
226.115
149.698
183.745
76.0854
149.429
129.467
626.765
138.19
50.5335
41.6822
34.297
107.12
115.132
47.0638
634.562
231.054
337.374
221.584
53.6886
53.4292
100.544
50.5737
208.617
185.314
80.634
604.623
111.978
119.843
247.302
335.38
275.65
64.2996
452.272
458.942
274.275
658.664
67.3871
412.313
582.991
531.815
59.3189
166.73
197.4
267.723
55.7622
133.82
230.344
503.007
447.092
32.5778
164.223
99.5534
131.102
77.5563
77.8338
56.9961
153.83
288.792
62.7224
403.915
385.644
268.048
274.469
74.903
104.338
105.123
67.7474
98.4963
54.9553
247.519
154.533
58.8728
484.9
226.704
54.5327
59.1207
55.1261
353.826
437.392
84.4889
79.6157
1149.28
497.949
274.056
51.3309
53.492
624.215
536.775
57.9968
251.112
39.7841
90.6893
29.3657
132.746
41.4267
45.5964
54.4128
53.559
130.947
54.008
551.646
61.5867
70.2904
38.8044
125.54
59.8035
52.9332
133.925
439.225
62.5671
39.0085
163.641
220.154
81.0375
436.411
326.917
397.542
481.013
160.665
41.0131
68.0408
210.427
126.261
117.014
311.514
108.842
53.0952
147.614
191.5
55.4464
124.725
280.845
425.964
159.29
306.999
85.7488
94.4109
58.6242
123.53
200.488
1191.97
529.235
76.2161
49.8274
128.136
91.4488
154.433
124.026
47.7015
151.55
234.389
355.253
57.8841
55.3301
55.2358
593.416
852.237
148.365
155.472
61.856
49.4769
63.2451
54.8341
120.311
197.077
164.599
627.065
54.1077
179.19
81.4959
111.969
284.498
123.137
60.99
402.548
436.894
239.587
240.155
246.15
217.923
605.707
259.177
778.023
1291.55
175.839
159.703
44.9787
460.975
110.228
119.706
719.619
253.876
225.232
43.3815
149.839
517.242
370.793
207.625
48.4579
260.607
169.828
740.918
136.058
798.365
123.095
102.285
96.0816
90.7443
89.3677
78.5653
55.2116
52.9306
161.345
156.588
248.154
44.3425
448.694
707.553
44.1885
212.871
183.639
682.955
50.211
462.971
623.003
183.353
172.03
209.309
121.563
325.513
54.6866
62.6379
77.3735
348.553
371.422
44.9363
797.546
183.363
343.632
76.919
994.945
56.3778
35.3007
298.082
454.087
453.84
622.429
274.886
129.289
125.03
101.686
148.777
158.1
110.023
65.5681
584.857
120.083
649.088
50.6931
81.2077
185.338
120.285
535.247
82.9205
50.0761
207.229
44.1545
203.538
72.7801
72.2207
77.4874
76.6017
139.284
366.984
445.256
53.607
269.864
157.981
128.254
47.2601
109.794
159.104
41.6878
90.3114
213.042
467.848
282.986
146.482
155.4
296.392
758.184
443.731
200.699
300.338
57.3965
556.019
225.862
329.768
458.39
104.97
144.442
230.227
50.5439
52.4442
156.965
242.436
237.419
208.31
120.467
151.486
337.631
484.379
46.4388
101.298
218.051
77.1414
362.193
398.269
153.15
229.085
51.9521
74.0006
166.346
47.4838
38.4571
53.9647
179.595
47.4098
50.44
51.5744
46.583
95.8321
63.7368
113.696
44.5435
155.712
415.459
144.657
171.928
44.6753
46.8872
88.7983
440.865
329.263
82.3781
217.414
146.321
50.5768
50.3093
153.907
226.334
211.234
237.692
207.444
140.916
130.772
490.987
418.654
63.6365
305.253
219.527
121.414
553.091
105.336
52.1872
53.7713
701.149
56.4591
143.135
157.787
425.346
117.119
176.537
231.325
96.7858
98.2865
234.49
134.952
208.343
40.2027
520.299
47.0673
373.619
238.695
108.089
85.9753
170.38
532.311
476.496
42.3304
54.9228
166.743
57.5528
51.1624
101.064
206.514
217.604
288.05
295.962
395.439
122.516
281.947
50.2611
47.8406
48.8441
45.2154
162.84
72.7811
256.984
153.068
103.49
562.692
174.052
112.902
45.2639
172.347
894.213
48.1338
120.863
133.699
164.476
917.645
1293
52.3878
152.09
36.9849
264.918
405.299
197.243
333.298
44.0021
41.9093
254.18
1301.25
284.125
205.739
139.271
600.491
172.399
188.582
152.178
461.715
305.765
222.631
499.547
204.688
191.314
718.02
1143.6
211.671
45.8015
40.3865
144.005
43.7406
144.951
53.4791
185.256
66.9394
72.3398
115.441
64.1708
34.1751
221.634
198.368
305.294
46.2061
184.045
266.032
54.4195
302.884
297.221
261.935
212.822
241.596
42.9795
152.083
155.964
455.052
210.863
230.837
524.336
297.669
45.7895
182.459
280.637
259.932
131.28
182.418
191.888
47.7137
71.1195
216.39
196.704
155.253
706.79
167.21
502.449
48.7802
165.975
52.1016
158.106
149.096
49.6244
105.537
121.885
370.454
362.543
287.111
103.197
77.067
57.5284
146.385
185.7
271.985
294.131
161.843
155.073
200.921
245.302
120.479
151.485
62.5392
509.763
306.996
268.474
210.661
249.422
337.024
266.049
640.174
251.123
69.8368
423.055
281.746
105.925
173.318
171.548
54.9511
41.0573
221.303
257.084
137.941
249.18
284.148
52.9477
86.9559
39.0541
81.9964
290.441
47.0208
1255.21
270.83
217.912
464.663
46.5869
762.71
51.9639
46.0246
103.285
295.315
220.1
121.386
145.994
187.732
47.5401
173.957
437.171
49.9032
41.3921
40.3808
337.647
530.675
82.872
656.174
274.241
58.7977
94.0844
456.533
133.181
49.2898
491.4
125.903
130.241
136.755
53.6655
276.193
192.339
1229.35
58.9401
132.691
157.206
538.497
370.88
384.608
65.3305
533.997
830.034
134.245
41.1555
43.6993
581.063
217.419
183.633
57.6114
97.882
118.258
479.638
70.8848
229.923
65.1841
725.765
246.261
198.851
52.2563
49.117
244.579
603.254
53.1895
55.0291
216.286
96.8785
836.155
55.9223
53.3015
250.022
230.953
749.958
103.586
484.105
179.108
1058.08
854.311
296.168
301.174
287.772
319.361
59.7198
147.775
56.5719
167.225
117.227
113.154
143.811
291.714
617.654
62.376
110.882
418.281
608.565
263.779
43.9713
106.019
716.816
158.749
593.457
243.039
275.844
423.399
697.76
42.0601
100.013
277.678
222.848
339.269
32.1508
267.973
178.981
161.401
131.179
273.285
423.808
179.647
771.891
720.769
397.346
312.74
452.169
716.614
286.661
42.3578
181.679
103.548
297.873
278.322
254.428
1526.68
229.155
53.7993
57.2436
428.299
385.738
108.274
85.4682
984.559
166.802
89.1993
183.676
719.334
192.091
205.189
441.211
940.789
378.437
184.257
588.469
181.064
182.084
251.278
265.481
276.986
141.626
455.461
50.5547
294.68
205.289
217.479
228.453
186.577
653.992
207.701
215.879
349.599
150.452
170.258
129.62
127.234
504.128
131.553
112.795
93.6367
67.3073
158.979
260.211
218.548
51.9448
279.051
273.636
250.685
444.443
773.515
116.829
525.961
336.432
295.32
727.662
342.743
231.35
496.028
133.027
89.959
170.017
205.601
540.453
112.135
135.518
158.327
425.316
816.704
122.948
125.021
155.703
454.383
183.874
126.196
108.49
282.995
569.771
116.14
196.504
513.005
116.45
286.327
628.819
493.165
640.513
171.815
52.2401
472.37
462.689
538.662
121.267
826.757
64.6772
509.497
226.834
49.213
203.231
39.8481
453.701
205.144
898.218
539.393
521.188
508.629
431.702
230.293
335.05
51.9027
403.132
187.208
219.487
697.343
73.044
350.072
549.111
75.1364
68.3418
124.666
672.649
75.3271
165.415
213.884
153.934
198.816
268.458
62.9043
238.622
54.3547
57.0789
228.611
229.861
118.629
128.486
409.259
105.706
235.368
180.225
220.706
231.209
192.409
107.228
107.802
46.8381
39.7237
86.6587
77.3167
32.0862
111.408
92.2388
103.041
202.618
231.677
109.854
61.3155
127.012
10.4131
51.3752
10.4621
12.7844
13.4259
193.527
58.2111
160.257
65.4041
20.6173
124.069
98.0954
23.7706
35.4608
322.268
31.7375
133.458
31.3974
129.016
47.5175
100.729
243.797
10.8499
16.1052
55.2621
115.852
156.198
163.866
160.58
37.4883
39.863
61.1798
30.8877
587.42
13.1163
66.9285
56.8125
26.1636
62.4973
14.2374
31.323
447.34
219.325
64.3254
42.1357
300.199
199.851
98.6815
23.5488
110.72
155.237
110.294
54.5519
223.436
39.6615
34.2067
39.245
47.9967
45.3193
200.045
234.275
37.6034
54.2828
77.0115
116.831
43.2898
37.6914
35.7304
203.156
178.977
82.6826
15.5718
428.57
90.1233
58.3736
194.018
151.063
49.9373
102.356
19.673
185.181
217.676
44.8282
40.7517
37.0204
23.7558
142.639
31.0016
17.3913
22.6361
289.307
113.485
10.8432
137.515
98.4215
110.925
27.5552
47.8779
112.49
239.2
129.551
204.675
122.233
48.5831
307.652
103.538
77.0212
32.348
38.1962
108.866
202.754
111.83
43.0219
81.9227
60.6128
33.3895
14.5108
16.0639
155.942
23.5323
87.2138
88.2532
47.9846
24.5922
15.5934
10.2055
8.02154
10.0818
8.68082
28.0463
62.9678
19.9618
64.6926
72.5199
11.7895
35.2099
78.5367
81.3724
37.9579
35.623
13.4123
97.1065
75.6902
83.3307
100.186
74.0021
69.9172
55.1472
98.4963
132.402
171.19
86.0208
96.3266
128.905
105.426
148.533
55.8801
73.2823
31.6999
119.732
49.6846
811.387
781.857
92.3928
62.3703
45.6955
62.3537
20.3444
22.8081
80.1442
63.8085
39.3446
120.972
78.829
136.672
126.013
44.4421
94.8799
44.584
76.7743
45.2431
39.9838
153.942
80.6029
46.2817
111.357
94.3226
64.149
124.05
148.127
135.552
162.491
12.177
69.035
355.548
33.8172
119.431
105.547
91.6011
105.849
117.444
38.5552
40.5088
54.3557
68.9359
108.257
73.0236
43.1158
35.178
59.0279
25.0278
31.811
101.48
97.5002
52.3137
46.6791
63.7393
193.45
10.5892
95.2166
95.0256
91.9948
19.6475
185.817
81.4408
1014.59
71.6958
95.4085
171.932
59.1962
189.589
17.4995
117.972
65.1205
21.2647
18.6042
116.724
20.6037
20.8153
69.8366
349.182
242.923
162.582
44.5583
44.6947
14.5064
51.4285
12.8147
40.9728
305.259
8.5446
70.261
51.2558
60.4976
167.932
58.9921
22.2574
51.7736
100.044
24.7941
25.9512
14.1139
89.1618
80.5348
32.0197
51.1157
19.3232
13.9468
101.903
8.70187
84.1283
61.211
12.8002
105.723
53.6215
23.4624
149.044
18.1636
12.0932
26.3558
29.7503
21.3079
62.5658
86.7911
17.5321
11.9101
11.7659
78.2141
29.6827
21.9387
22.4523
15.1759
135.994
11.389
54.9767
61.8651
39.5907
61.1686
84.1886
38.7476
40.7284
18.3966
358.799
208.793
56.1356
108.868
29.0966
166.965
59.6509
11.6612
126.233
96.4698
52.2617
26.1632
61.8773
153.98
155.056
91.4058
64.2791
162.365
68.7233
127.382
50.3424
152.52
125.137
13.335
25.1288
47.2468
37.7893
18.345
54.3221
93.7485
206.051
92.5202
67.0674
51.8639
39.5682
33.9108
138.229
140.125
147.198
43.5652
95.2089
105.594
28.3533
97.2147
163.111
119.111
19.1815
96.1024
18.4152
30.213
99.4569
10.6514
122.785
115.378
48.7606
185.636
71.8765
89.9087
17.6485
54.8972
138.007
72.2788
126.019
160.347
14.1094
32.0276
29.4054
79.194
69.1168
84.928
39.0769
44.2645
448.965
23.9558
85.5642
31.9509
57.7613
26.9309
84.1673
117.851
7.92794
25.8388
8.42592
125.768
62.9902
177.861
111.722
96.0466
19.8563
42.8329
25.6833
40.8263
160.9
50.6441
86.6446
98.7684
67.9874
74.1298
10.1055
18.5203
49.4383
105.841
117.258
70.3962
28.3272
51.4003
49.4417
8.65017
9.59629
62.3242
25.9597
31.2095
48.935
22.7545
114.168
64.0101
23.1391
16.6557
31.8461
202.237
32.0401
55.7598
90.4746
63.4324
102.404
33.1619
28.7007
143.161
258.891
11.9794
100.115
44.7632
34.8551
201.605
61.9623
74.668
21.6077
58.553
62.9411
123.736
85.9417
17.4689
9.16874
371.375
42.7349
124.248
42.1486
52.8614
105.424
21.2533
72.8446
68.4435
43.9083
17.0966
62.7426
50.9288
145.585
22.4427
24.6044
141.756
55.0314
70.2498
112.676
83.3222
131.758
44.252
122.705
62.9719
48.3144
61.7253
40.7048
130.169
14.3624
183.035
60.2311
43.7825
8.74194
24.5948
51.7535
221.753
14.473
87.4021
80.2774
13.2899
62.9093
7.74987
191.675
8.84009
11.6541
10.3864
278.611
217.878
8.25348
89.1205
24.5961
713.138
62.5432
71.8791
746.211
86.6519
72.9271
503.461
38.5021
24.9776
110.348
203.275
80.2042
22.609
151.201
388.261
46.6689
112.832
222.623
59.4623
92.9405
45.2182
72.1928
154.383
32.0858
29.0288
31.5971
41.4942
70.7072
53.8396
133.431
49.1854
73.9303
11.148
120.222
345.918
32.4293
7.53147
102.329
102.628
9.04331
38.8903
114.214
104.494
119.013
121.361
58.7434
92.597
559.478
107.401
23.4946
180.362
25.9328
81.7359
49.9881
111.147
46.4373
10.8395
10.8869
51.2302
14.2428
86.086
8.64094
20.1652
79.7481
16.4281
172.155
44.2232
40.2378
154.628
32.1296
220.441
18.4097
15.1464
17.5
10.4876
58.7611
57.7395
34.8913
64.9838
516.963
617.015
62.1117
44.528
60.7471
59.5755
132.396
53.1464
14.9373
199.428
201.398
316.386
188.657
45.8923
28.0506
194.048
307.886
230.114
146.72
87.6882
123.903
80.9885
16.5369
33.4187
116.977
305.504
81.9209
109.565
10.5257
9.08544
110.311
20.4936
141.284
32.3931
67.104
15.2185
104.387
49.0161
39.4896
8.71091
29.8062
83.0478
112.713
59.339
299.72
296.771
20.7643
150.169
41.2043
18.3982
29.7366
59.1447
29.8223
31.286
136.394
110.143
301.647
76.9038
76.8201
85.2526
8.9433
38.4074
49.3163
39.994
117.135
56.4767
25.3247
22.6138
180.263
215.475
94.4367
121.482
11.2592
127.571
96.3973
39.7237
25.8433
14.1157
124.837
85.0279
50.0311
35.0235
57.9859
239.646
240.842
178.407
77.6795
56.4589
45.1979
190.702
172.995
107.273
105.493
50.7327
298.784
113.383
9.61048
87.8713
643.451
8.28222
8.23878
43.1754
1054.48
951.248
27.354
27.9175
660.425
25.1369
97.9472
10.6301
88.8936
126.592
352.835
11.0561
39.1795
57.4552
28.2363
285.953
8.56917
22.8659
77.9551
65.4831
79.7637
40.8604
92.0507
164.937
141.853
86.5204
69.4171
103.458
8.03122
741.007
18.8826
22.8516
63.9607
43.9982
65.0856
30.6594
29.5828
222.079
108.473
106.795
9.11039
123.426
11.2146
190.339
47.3249
18.7914
25.619
128.32
39.914
49.9944
49.1265
20.3805
20.0956
80.176
141.743
126.47
217.538
81.1231
144.284
14.8942
18.419
56.9779
135.588
36.1921
87.3387
28.2687
49.8753
779.473
840.014
12.1551
9.1268
44.7282
79.5641
222.721
16.7777
77.0592
9.35114
14.6887
13.7253
514.265
822.981
205.165
50.6968
87.9582
74.343
14.259
39.4914
55.6312
26.7522
15.7542
18.4066
55.567
54.9161
139.373
42.0934
121.656
100.521
73.2265
22.5956
240.047
47.9274
130.528
27.0239
29.3466
17.8763
140.576
111.265
123.097
169.467
19.4794
19.7969
16.4911
141.928
151.749
115.024
87.3861
68.0695
96.506
173.46
87.9576
85.3542
8.52233
8.46248
17.3058
279.991
109.125
20.5962
19.0445
26.1917
24.3297
56.0834
47.4408
18.0923
12.3813
10.5886
24.0273
8.33793
21.2234
8.49268
98.4297
33.0244
29.7234
12.0722
162.229
146.962
31.8066
38.8932
135.086
59.3137
8.78183
9.12132
9.73803
56.7711
179.313
231.664
163.411
102.141
48.1167
63.6575
8.58668
8.70662
34.081
79.2033
9.59643
9.39535
67.1549
20.5805
19.6173
9.98373
293.389
105.576
62.7716
82.876
138.887
111.536
53.9029
71.0766
205.502
26.6243
80.3296
211.21
48.6808
34.0064
35.7779
89.8849
89.4787
111.079
74.1853
9.77899
24.5262
22.1546
41.0886
778.483
112.001
136.243
55.405
37.7009
53.8838
66.3761
62.8224
86.0334
79.2405
25.3156
28.2784
28.6379
38.9621
37.3109
105.199
87.2051
97.383
121.831
126.399
122.196
106.639
102.395
106.546
9.2964
99.0287
13.1977
16.6911
103.66
54.129
108.344
93.0901
49.3726
85.5786
57.6087
67.3042
55.8735
354.443
196.486
169.296
17.8558
106.309
75.6219
38.7539
598.437
22.8288
127.755
68.5578
218.165
8.56628
92.9102
264.203
65.3142
76.8901
8.88004
8.75381
21.5087
9.03262
65.2058
70.1487
58.399
53.425
34.178
81.9384
83.4801
74.8792
50.2579
220.099
176.178
165.028
12.3928
103.735
73.5844
29.1618
29.3666
146.96
158.055
6.89663
101.26
121.243
9.40721
108.183
108.026
6.6369
35.765
235.167
27.3864
40.3617
9.12919
51.5755
43.8
9.83818
93.1188
16.9241
141.375
14.4294
30.5054
188.646
49.3368
114.322
40.3015
70.3505
70.6992
121.094
59.6022
52.3063
62.2784
67.6443
25.0229
25.1522
12.1235
49.6176
65.781
172.137
186.086
673.973
31.8783
31.6396
105.163
189.538
40.7899
28.7495
34.6364
40.1632
49.6133
8.45863
89.8347
99.7281
20.523
105.333
113.84
8.97606
9.06454
58.8681
59.0752
42.8369
115.578
9.39664
63.1872
14.1966
157.883
66.4247
161.448
10.1867
18.3779
20.179
42.9583
11.6422
191.432
8.90235
114.594
34.7653
91.5853
73.6695
106.837
112.696
398.492
126.841
28.5047
60.2119
38.8475
10.3291
16.7986
71.7434
13.4573
107.896
65.3172
67.4913
260.859
63.4348
13.1318
515.053
247.16
23.7565
197.88
36.6584
198.156
70.1087
31.9262
27.6694
30.0124
20.38
48.4183
342.257
40.5432
23.0155
214.864
71.8691
43.4013
20.8785
15.1131
24.1016
58.7466
46.1739
113.226
72.7795
79.856
129.065
48.1592
91.5101
20.0929
10.2716
48.6071
92.0826
143.792
52.8803
187.913
166.747
131.914
8.25926
245.046
66.4918
916.051
9.73717
330.861
222.535
284.04
98.8973
81.8224
104.587
122.404
29.2297
8.57026
201.28
227.351
64.0918
297.779
316.708
36.246
36.6084
414.663
10.433
146.76
18.732
273.582
16.0298
101.041
99.139
8.27287
66.4814
60.27
10.3718
138.022
82.6229
80.38
92.9513
209.623
13.1423
8.04562
46.3433
37.8615
63.3049
8.5411
42.3995
121.137
65.6331
93.7473
481.286
471.829
8.93912
16.4526
120.112
106.826
92.7955
50.4415
303.672
8.6577
42.1644
117.268
6.3574
9.24833
9.03767
8.71975
159.838
20.735
55.29
117.611
96.7495
67.0204
106.554
90.213
132.306
131.877
55.2346
9.38003
104.099
478.638
161.746
9.94414
9.71103
227.8
161.702
108.494
186.598
16.9716
76.5746
88.9299
115.454
97.827
25.5928
21.6649
21.003
63.4139
113.734
98.2293
12.9067
102.895
10.3224
134.546
26.1331
15.9105
87.9652
32.7813
238.569
45.9532
36.4264
134.13
9.42431
55.433
40.7244
208.999
38.6261
82.2004
219.889
63.4558
84.1901
24.6667
50.463
8.55323
9.24135
9.96815
73.0571
15.4709
188.099
148.823
8.97467
172.18
113.651
377.388
70.2457
233.052
231.266
39.4604
9.4531
962.259
52.7398
49.9669
223.914
49.0512
236.851
247.474
200.846
200.868
25.5938
158.893
58.1631
14.3802
7.08231
202.596
62.4869
18.5879
19.7972
137.218
18.0076
18.367
52.4363
68.1672
23.0518
70.7877
165.586
118.469
153.925
40.1626
46.0374
180.507
102.963
57.0088
111.807
83.3286
138.636
22.9147
9.12095
135.004
137.101
28.3152
131.598
20.5994
103.529
10.1478
132.384
77.0969
52.0818
19.138
44.5145
309.286
9.06588
19.7899
9.4976
192.984
322.38
191.951
26.041
107.818
52.756
28.8467
26.0444
42.6796
125.403
413.642
60.134
240.527
267.857
342.384
220.572
244.213
36.0712
30.3682
46.767
150.83
203.352
192.968
85.8577
97.9194
28.8982
26.2924
17.3188
12.8128
21.2308
18.6205
11.5988
290.166
12.5052
8.36191
177.789
145.889
8.48755
8.84109
90.1168
442.732
8.67752
32.5988
33.7778
9.56779
11.9652
17.4756
237.201
121.59
83.3468
9.26898
293.437
195.28
248.321
44.6118
8.65126
8.84711
691.969
109.952
114.467
401.735
52.811
75.2084
190.205
27.4605
74.1727
95.1576
109.094
198.599
79.1674
91.5443
67.7859
88.5787
32.0495
73.1632
58.8966
175.962
68.3284
7.95874
18.5744
14.6512
61.4888
51.6362
12.8647
260.91
97.6437
136.022
98.6564
16.0278
17.6288
33.2063
8.21637
97.6152
99.6696
40.5364
240.465
46.3154
53.9098
78.3639
151.951
174.977
23.1959
213.645
185.729
129.934
368.973
40.9114
142.732
223.712
192.914
9.25203
85.6878
133.585
149.859
14.377
61.3694
82.6711
161.4
184.749
25.7473
61.4121
49.5563
54.8443
28.5608
27.1558
9.27435
90.9772
122.141
30.0258
188.362
177.21
178.873
132.235
30.7423
59.0001
45.5925
39.0273
51.7284
14.0749
138.276
99.8239
18.8699
192.866
83.0731
21.0656
9.90796
13.0148
140.547
220.677
26.0139
24.7165
441.496
274.267
131.352
16.7752
8.8436
289.424
200.902
9.09778
90.4916
17.9061
43.7472
25.5113
68.1684
14.5719
24.5853
8.72461
8.67818
60.422
8.40094
273.643
20.0354
25.3379
7.29289
33.4474
9.81778
8.55409
50.8974
178.998
14.3877
16.0628
60.065
70.9297
33.3831
241.268
209.918
247.153
269.831
54.1166
25.9485
33.9125
53.9561
48.648
49.6094
114.989
43.7971
11.4163
71.7508
68.9052
20.1464
34.261
233.339
233.143
85.9009
176.206
57.6538
58.8822
9.36766
38.3925
77.0746
459.302
209.206
30.8987
22.1664