/*--------------------------------*- C++ -*----------------------------------*\
| =========                 |                                                 |
| \\      /  F ield         | OpenFOAM: The Open Source CFD Toolbox           |
|  \\    /   O peration     | Version:  2212                                  |
|   \\  /    A nd           | Website:  www.openfoam.com                      |
|    \\/     M anipulation  |                                                 |
\*---------------------------------------------------------------------------*/
FoamFile
{
    version     2.0;
    format      ascii;
    arch        "LSB;label=32;scalar=64";
    class       volScalarField;
    location    "10";
    object      k;
}
// * * * * * * * * * * * * * * * * * * * * * * * * * * * * * * * * * * * * * //

dimensions      [0 2 -2 0 0 0 0];

internalField   nonuniform List<scalar> 
76405
(
1.66414
1.74925
1.11567
0.988642
1.76198
1.54678
1.03499
1.57805
1.2155
1.62058
1.92989
2.2761
1.59993
1.15873
1.02682
0.652741
1.19169
0.655864
0.682743
0.703907
1.88975
1.03937
1.94328
1.46581
0.837565
1.60073
1.3416
0.886424
1.17329
3.05424
1.12374
1.75481
1.05344
1.56684
1.0531
1.25947
2.49721
0.741111
0.667389
1.27861
1.81057
1.84831
2.13668
1.7877
1.43041
1.11375
1.54562
1.04019
3.08802
0.64041
1.4495
1.26045
1.21945
1.30775
0.86101
1.05436
3.09806
2.2494
1.18943
0.965358
2.2401
2.12606
1.95534
0.870086
1.77929
1.93128
1.41766
1.26142
2.20658
1.03111
1.02528
1.06817
0.915791
1.37258
2.35385
2.20644
0.876539
1.19298
1.35445
1.61238
1.13471
1.08718
1.15874
2.6896
3.0535
1.60813
0.973154
3.55369
1.63505
1.25102
2.84693
2.13443
1.43778
1.39522
0.712515
2.53007
2.59641
1.06206
1.05584
0.823627
0.801585
2.49801
0.810291
0.702907
0.992262
2.89785
1.40903
0.657414
1.74376
1.6544
1.55686
1.38219
0.936835
1.56024
2.83329
2.19833
2.01823
1.9224
1.44126
3.38442
1.79761
1.93925
1.08327
1.04061
1.62845
1.89501
1.57323
1.27824
1.75964
0.921033
1.04211
0.959878
0.585784
2.14756
0.834331
1.66477
1.349
1.12422
0.754785
0.750011
0.651034
0.657553
0.652467
0.759482
0.927026
1.59449
0.803985
0.993222
1.32711
0.784735
1.1742
1.5073
1.80041
0.972621
1.02355
0.691501
1.84316
1.36675
1.58094
1.72766
1.0648
1.38654
1.5634
1.96797
1.61905
1.85491
1.57972
1.68798
1.6499
1.6781
2.10518
0.836009
1.07642
0.86597
1.89671
1.25825
3.23694
3.25456
1.51679
0.993052
0.977194
1.2311
0.861032
0.837986
1.77177
1.37413
0.884524
2.02065
1.76388
1.63998
1.80442
1.19751
1.41212
0.853948
0.624076
1.20448
0.968259
2.41229
1.34527
0.85261
1.60381
1.64903
1.34264
1.59375
1.70578
1.84137
2.08059
0.877586
1.34748
2.6141
1.12865
1.56016
1.59448
1.70835
1.48599
1.4424
1.07156
1.34329
1.48591
0.939736
2.01065
1.34413
1.14256
1.08886
1.29764
0.735736
0.868077
1.46838
1.51357
1.18729
1.26715
1.56219
2.59041
0.703062
1.60995
1.57859
1.28819
0.669996
2.50782
1.70843
3.80286
1.06195
1.43585
1.67782
1.48953
2.16031
0.974224
1.24995
1.38776
0.900789
0.657101
1.81636
0.729197
0.678507
1.79928
2.97958
2.94877
2.33083
1.2371
1.38038
0.687179
1.34547
0.644131
1.23845
2.10705
0.771906
1.62003
1.08996
1.19469
1.99935
1.23356
0.853286
1.14695
1.84196
1.18458
1.15557
0.747139
1.54977
1.55596
1.03584
1.33466
0.678957
0.624085
1.84935
0.78255
1.41569
1.30922
0.6779
1.56229
1.16816
0.616252
2.23342
0.7619
0.695389
0.9259
0.769157
0.822503
1.24706
1.40642
0.670973
0.870941
0.668463
1.21211
0.835538
0.711803
1.00509
0.666193
1.87494
0.656087
1.18224
1.02716
0.963109
1.4697
1.37928
0.944235
0.837601
1.05709
3.44504
2.21059
1.28
1.35168
0.907316
2.30823
1.18062
0.731494
1.61115
1.09622
1.31751
0.795229
1.19996
1.61949
1.33421
1.26104
1.20972
2.39175
1.15546
2.32392
1.13273
2.05544
1.91952
0.668756
1.17034
1.32041
0.526162
0.662444
1.26357
1.4733
1.88028
1.67355
1.2857
1.19096
1.06438
1.25397
1.83441
1.94614
1.9567
1.74327
1.55353
1.5842
0.655953
1.72214
1.7906
1.34913
0.665056
1.67888
0.720543
0.542224
2.40886
0.655268
1.82995
1.7145
1.47139
2.39719
1.31447
1.4843
0.721821
1.25019
1.67899
1.27353
1.99723
1.9191
0.777243
0.759003
0.946767
1.34086
1.2548
1.50165
0.924195
1.07846
2.99944
0.640844
1.42035
1.08566
1.30181
1.01936
1.34579
1.47542
0.765061
0.889993
0.755607
1.39765
1.17475
2.78618
1.60085
1.45304
0.732036
1.36022
0.804063
1.27813
1.88043
1.17913
1.88857
1.71655
1.48563
1.1394
0.729202
0.746374
1.25853
1.75961
1.76525
1.46772
1.02546
1.52925
1.24301
0.769938
0.742593
1.32407
0.864738
0.99602
1.21155
0.76967
1.47303
1.35899
0.778912
0.749912
0.906861
2.29634
0.947371
1.32455
1.26076
1.64423
1.97174
0.992028
0.859703
2.0163
2.32127
0.939273
1.50174
1.22276
1.01453
1.74611
1.22417
1.48922
0.904207
1.03535
1.17404
1.91104
1.24417
0.809802
0.769934
3.24057
1.09618
1.78848
1.30646
1.69403
1.49658
1.09949
1.28477
1.51297
1.24845
0.776995
1.34364
1.55629
1.59959
0.808378
0.858188
2.07429
1.25722
1.28605
1.50046
1.34262
1.7637
1.01461
2.52894
1.28356
0.877359
1.31792
0.893971
1.87616
0.668005
2.47909
1.33159
1.07666
0.76851
0.894338
1.07686
2.52441
0.734749
1.79369
1.68931
0.894489
0.980403
0.647148
2.39582
0.782271
0.676341
0.687554
2.41293
2.16924
0.722493
1.47803
0.871941
3.46469
1.10613
1.37737
3.05183
1.50768
1.21588
2.9874
1.03587
1.00169
2.52017
2.52347
1.54991
0.593705
2.68296
3.09615
1.37557
1.74272
2.78136
1.32989
1.50905
0.957517
1.54247
2.16155
0.901707
0.856553
0.813658
1.1159
1.6109
1.29335
1.88277
1.15722
1.08091
0.750387
1.90917
2.72101
0.902402
0.651689
1.7327
1.52211
0.807095
0.941239
2.06863
1.69867
1.83206
2.00353
1.04804
1.80574
3.5748
1.48239
0.778855
1.30421
1.07462
1.47861
1.35551
1.78677
1.05801
0.670432
0.674177
1.48102
0.728405
1.58499
0.742033
0.779187
1.3207
1.0137
2.46567
1.08951
1.0243
1.99165
1.01285
2.56506
0.914216
0.65724
0.714785
0.661309
1.22117
1.13714
0.962986
1.39946
3.09369
3.62989
1.48047
1.44332
1.16911
1.22103
2.0219
1.22671
0.647478
1.75775
2.14453
3.26241
1.70923
0.862753
0.794375
2.97564
2.84521
2.92
1.83567
1.32357
1.35134
1.53506
0.653243
0.927994
1.67275
3.04518
1.25392
1.62088
0.732788
0.723738
1.86852
0.84123
1.60519
0.992361
1.56372
0.653985
1.66991
0.993717
1.2819
0.754974
1.00613
1.75255
1.92388
1.32861
2.88164
2.56328
0.870389
2.54193
1.17015
0.656104
1.1175
1.34788
0.997233
1.15707
1.69904
1.65206
3.10564
1.46567
1.33878
1.50325
0.799239
1.17072
1.01914
1.1974
1.80926
1.27875
0.854738
0.944756
2.46138
3.16332
1.49401
2.12662
0.850137
1.95565
1.7801
1.44343
0.908823
0.771959
1.86908
1.50043
1.09244
1.06342
1.37862
2.57856
2.89797
1.97289
1.19807
1.1785
1.28278
1.969
1.89526
1.6485
1.4858
1.25315
3.48667
1.42007
0.695814
1.45242
3.41233
0.745254
0.727709
1.10465
4.10659
3.22974
0.8844
0.994907
3.16218
0.776906
1.81838
0.661723
1.2605
1.33938
2.82928
0.947788
1.17997
0.837783
0.803989
2.67137
0.800782
1.06979
1.48895
1.42826
1.58909
1.10525
1.59863
2.25923
2.20609
1.3088
1.13503
1.58445
0.739397
3.14986
0.779901
0.754598
1.27047
1.06047
1.39934
0.753928
0.714546
2.47045
1.61634
1.51896
0.685005
1.86896
0.813315
1.65715
1.17699
0.938826
0.979768
2.20148
1.22248
1.32414
1.07168
0.767048
0.717877
1.77812
1.56146
1.44664
2.79008
1.33628
2.345
0.613707
0.833963
1.25152
1.52482
1.06945
1.48481
1.18639
1.31917
3.17339
3.41137
0.70159
0.796085
1.2983
1.52602
2.32508
0.799468
1.50776
0.687837
0.994767
0.670765
2.56674
3.89442
2.97037
1.29895
1.4727
1.40414
0.604671
1.38285
1.20423
0.942129
0.691341
0.662614
1.3888
1.13037
1.58247
1.16481
1.88813
1.84345
1.42357
0.645921
3.12207
1.12877
1.88613
0.703765
1.00044
0.757898
1.85098
1.85665
2.00362
1.48689
0.775312
0.79732
0.839187
2.18581
1.99674
1.52152
1.43621
1.51461
1.74187
1.40129
1.71158
1.37441
0.769157
0.754258
1.05516
2.72695
1.59817
0.828657
0.724857
0.884152
0.881533
1.29435
0.962447
0.655864
0.774679
0.734873
0.734161
0.73296
0.872599
0.756218
1.65281
0.89044
1.04895
0.776156
2.18712
2.41591
0.927364
0.81738
1.67425
1.34036
0.785693
0.795174
0.800261
1.14341
1.91628
2.73782
2.84216
1.62279
1.16297
1.60787
0.804989
0.746764
1.0354
1.6797
0.809278
0.803955
1.5902
0.804313
0.776712
0.771603
2.46239
1.79658
1.28897
1.38867
1.81354
1.71995
1.37923
1.27319
2.1259
0.827907
1.54516
2.26631
1.24996
1.10524
0.940362
1.61142
1.20886
1.46603
1.14774
0.70252
1.05768
0.752239
1.13251
3.69165
1.8513
1.65513
1.26685
0.853446
0.978258
1.26341
1.32321
1.45614
1.48657
0.805958
0.796426
0.841177
1.16942
1.11265
1.49821
1.95863
1.71722
1.85802
1.76004
1.70809
1.82687
1.92894
1.63963
0.731113
1.50344
0.639863
0.73308
1.55917
1.47336
1.38248
1.47618
1.1556
1.50156
1.32582
1.40881
1.35325
3.65596
2.60231
2.71152
0.662494
2.06089
1.61191
0.993719
3.52351
0.92432
1.61587
1.4594
2.72389
0.745928
1.49688
3.02652
1.48145
1.76523
0.707239
0.716306
0.931174
0.802259
1.30896
1.60662
1.30499
1.25325
1.12864
1.47397
1.59604
1.33677
1.12223
2.19409
1.95976
1.88217
0.642051
1.87509
1.16479
1.23553
1.16921
1.84658
1.57455
0.614376
1.84871
1.74466
0.732089
2.4417
1.44442
0.607898
1.22008
1.716
1.0719
1.20831
0.75462
1.39407
1.37293
0.725187
1.51616
0.748683
2.61094
0.797199
1.20059
1.96516
1.2978
1.47932
1.11485
1.434
1.31441
1.57245
1.61148
1.31384
1.56125
1.09904
1.10021
0.740363
0.662863
1.3032
1.40479
1.92529
2.29114
3.98217
1.1006
1.12594
1.45053
2.3158
1.07062
0.8258
0.866445
0.899122
1.09633
0.733533
1.48863
2.17476
0.52596
1.53576
1.70141
0.801516
0.7911
1.16474
1.10769
0.971892
1.58374
0.715334
1.06378
0.747285
1.911
1.31313
2.43507
0.785092
0.698016
0.578887
1.0979
0.847807
2.44155
0.780828
1.67223
0.771177
1.4188
1.59835
1.45264
1.88641
4.12638
2.16159
0.93324
1.70054
1.2803
0.697863
0.794388
1.11335
0.618315
1.56896
1.46764
1.38032
3.39987
1.2729
0.692676
2.73748
2.64421
0.697729
2.26799
1.06458
2.47367
1.38009
0.896002
0.824696
0.782201
0.688647
1.01257
3.87898
0.858787
0.744589
2.24491
1.52742
1.15072
0.687174
0.749702
0.903206
1.47109
1.30078
1.94445
1.32046
1.25944
1.76001
0.965986
1.32598
0.699331
0.793112
1.45036
1.47283
2.23727
1.26568
2.41448
2.74012
2.40368
0.727535
2.54553
1.3196
4.11383
0.757442
3.32861
2.77123
3.18849
1.3996
1.19121
2.10321
2.05807
0.660939
0.73536
2.56118
2.58241
1.10081
3.09458
3.56915
0.924588
0.8216
3.86538
0.75751
2.12044
0.915499
3.94963
0.673967
1.28458
1.32467
0.791163
1.34471
1.5084
0.75599
2.0841
1.13554
1.26335
1.64227
2.36897
0.803097
0.722382
0.947765
0.912521
1.33675
0.749701
1.126
1.90141
0.895623
1.86847
3.75369
3.76928
0.719041
0.976129
1.95079
1.57771
1.17689
1.14744
2.9948
0.747829
0.859256
1.64026
0.593959
0.804204
0.787143
0.779493
1.74613
0.809229
1.04072
1.36515
1.86216
1.67693
1.902
1.50525
2.63154
2.35747
1.44178
0.803472
1.44364
3.76846
1.91472
0.66397
0.682362
2.61033
1.83488
1.63121
2.72096
0.682804
1.50481
1.68177
1.50977
1.54672
0.66967
0.808368
0.719181
1.55716
1.73892
1.81168
0.715784
2.0755
0.664983
1.9933
0.783154
0.70218
1.70591
0.838921
2.53524
1.22223
1.18642
1.99542
0.744127
1.38777
1.40371
2.1614
0.953852
1.31243
2.58742
1.36833
1.73718
0.870693
1.34415
0.735232
0.811681
0.670959
1.13431
0.845226
2.45303
1.75203
0.795599
2.09696
2.09856
3.57411
1.8005
2.89182
2.87528
1.24425
0.80071
3.96659
0.9871
0.979258
2.95495
1.08065
2.23687
2.01708
2.62293
2.81259
1.0226
2.5038
1.26632
0.669981
0.607667
1.41494
1.26719
0.719337
0.672947
1.66112
0.755083
0.837884
1.26673
1.65435
0.705374
1.46362
1.94284
1.82836
2.04128
1.05522
1.15013
2.39487
2.24136
1.29042
1.50463
1.60201
2.19955
0.751096
0.814643
2.29205
2.28669
1.07275
2.02219
0.677115
2.01597
0.668852
1.6097
1.20647
1.36106
0.711601
1.01092
2.41676
0.715601
0.652624
0.804313
2.56485
2.46808
2.63129
1.08606
1.61199
1.11179
0.936094
0.993186
1.018
2.24895
3.20677
1.34052
2.54576
2.4868
3.49054
3.12217
2.69703
0.770071
0.75492
1.15162
1.8099
2.83564
1.51458
1.15316
1.46103
1.13941
0.629804
0.812393
0.631923
0.680101
0.735869
0.695636
3.40344
0.671899
0.713988
2.62771
1.7791
0.74565
0.737681
1.59656
4.32513
0.751258
0.954341
1.02448
0.808146
0.79067
0.724898
2.70151
2.63675
1.20598
0.710278
2.40179
2.52964
1.90783
0.983347
0.781895
0.771427
2.75652
2.07542
2.23485
4.01499
1.35292
1.17727
2.18605
0.88151
1.44861
1.75655
2.30358
2.86582
1.30023
1.5864
1.30335
1.37349
0.969996
1.50444
1.36667
2.87607
1.16769
0.738136
0.667066
0.580916
1.07023
1.13105
0.680729
2.98582
1.86559
1.81636
1.59548
0.736808
0.729835
0.920283
0.734855
1.30109
1.27762
1.03299
2.69008
1.21243
1.20161
1.56449
2.07003
1.69112
0.87379
2.57973
2.60606
1.65243
2.51982
0.960922
2.32107
2.70602
2.54293
0.813054
1.54222
1.56048
1.99934
0.737798
1.12214
1.59251
2.36765
2.33117
0.600954
1.34882
1.22255
1.44249
0.92666
0.925023
0.796057
1.3255
2.03643
0.841444
2.40572
2.29182
1.71166
1.72743
0.975384
1.02552
1.08329
0.919766
1.09558
0.704118
1.8208
1.44622
0.771718
2.5568
1.44537
0.733385
0.824031
0.774502
2.20792
2.20834
0.982092
0.957276
4.10434
2.4477
1.5945
0.696753
0.757063
2.5422
2.5353
0.80898
1.66739
0.67603
1.03785
0.5245
1.04779
0.691412
0.724669
0.767729
0.756154
1.17323
0.757146
2.73395
0.783349
0.88252
0.628053
1.28809
0.813158
0.762996
1.15641
2.45211
0.813581
0.658979
1.48127
1.81252
1.04976
2.3133
1.9696
2.17182
2.39022
1.27156
0.663294
0.934244
1.41744
1.30103
1.25726
2.06397
1.2408
0.76858
1.19907
1.38399
0.757388
1.06577
1.67484
2.28642
1.35814
1.89052
0.946943
1.0362
0.817437
1.0312
1.61076
4.30872
2.48632
0.989978
0.755891
1.12545
0.99195
1.35575
1.18271
0.782959
1.16907
1.60357
1.93234
0.864998
0.783058
0.842364
2.62945
3.63876
1.12738
1.29648
0.788126
0.775174
0.945193
0.806808
1.30253
1.62543
1.44276
2.58267
0.740144
1.39373
0.996835
1.14901
2.01742
1.03424
0.776179
2.39609
2.31707
1.75304
1.89408
1.81513
1.65472
2.77502
1.66804
3.4095
3.89077
1.43918
1.34599
0.664052
2.59556
1.20863
1.19411
3.4955
1.68738
1.59472
0.673798
1.16432
2.45948
2.04406
1.35849
0.702837
1.83797
1.56222
2.83946
1.11706
3.42162
1.02068
0.989402
0.949656
0.887137
0.903137
1.00555
0.780772
0.750787
1.34774
1.39252
1.66657
0.689072
2.17074
2.73907
0.691411
1.54682
1.43261
2.81514
0.722432
2.2438
2.95104
1.53168
1.18626
1.46433
1.06013
1.8206
0.776993
0.759085
0.973389
2.15695
2.18566
0.713518
3.43891
1.40688
2.12808
0.963804
3.05224
0.791241
0.554404
1.79032
2.36626
2.28614
2.71798
1.91304
1.04608
1.04786
1.08874
1.22344
1.28667
1.25474
0.915209
2.76774
1.02491
2.89678
0.803442
1.0758
1.40791
1.0055
2.69734
0.998988
0.747755
1.67308
0.61804
1.96063
0.903931
0.911097
0.940972
0.94692
1.19753
2.25149
2.56969
0.753931
1.72493
1.28373
1.12577
0.712547
1.11929
1.45232
0.680801
1.05627
1.39781
2.37182
1.84184
1.18993
1.20299
1.72823
3.50649
2.57294
1.70556
2.00873
0.801194
2.8082
1.43909
1.7944
2.44615
1.19979
1.12774
1.63114
0.798813
0.716059
1.21173
1.53038
1.67311
1.58152
1.30272
1.49806
2.06241
2.52034
0.666975
1.07137
1.47864
0.956782
1.70614
2.06001
1.39263
1.4265
0.72947
0.950914
1.27137
0.687037
0.590729
0.740671
1.79439
0.679327
0.714758
0.776333
0.702007
1.08239
0.930049
1.04331
0.657591
1.1672
2.54706
1.16314
1.36528
0.759617
0.80072
1.15957
2.36128
1.90414
1.02707
1.80088
1.42375
0.752941
0.689138
1.58157
1.68425
1.50213
1.49087
1.58795
1.23503
1.21271
2.50534
2.18799
0.85753
1.83978
1.43787
1.00045
2.53966
1.23955
0.712212
0.744371
2.74812
0.794428
1.2275
1.31818
2.29704
1.11289
1.36062
1.67476
1.17171
1.17031
1.59951
1.29161
1.51286
0.60381
2.86559
0.741394
1.98654
1.6834
1.37092
1.10636
1.38172
2.79917
2.57772
0.678701
0.762711
1.24654
0.810971
0.813887
1.07433
1.43904
1.67035
2.26037
1.78274
1.92479
1.07348
1.7004
0.725942
0.708698
0.679196
0.624503
1.4116
0.842111
1.68343
1.36838
1.23772
2.65399
1.41669
1.03498
0.691152
1.33752
3.65963
0.732676
1.04221
1.21518
1.37013
3.88598
4.44923
0.743974
1.28842
0.627781
1.75303
2.22313
1.56342
2.07601
0.701118
0.662295
1.99906
3.25896
1.81487
1.47893
1.143
2.78871
1.24962
1.34069
1.1781
2.39531
1.85804
1.50906
2.6525
1.36767
1.49879
2.08194
4.09753
1.47091
0.717714
0.665136
1.44337
0.722817
1.27157
0.904486
1.42483
0.785128
0.850685
1.2364
0.857047
0.609486
1.61641
1.52012
2.09341
0.687159
1.26765
1.6641
0.824182
1.82328
1.79057
1.76652
1.59398
1.82057
0.650997
1.20839
1.27128
2.20345
1.53629
1.46825
2.68138
1.78417
0.670744
1.55432
1.6286
1.57056
1.12743
1.3247
1.3884
0.775784
1.03128
1.56676
1.39686
1.39808
2.86881
1.34551
2.46235
0.701392
1.28874
0.752396
1.39525
1.16575
0.6974
1.10826
1.29303
1.9771
2.16131
1.83097
1.27712
0.970168
0.913861
1.14551
2.0107
1.76967
1.83032
1.61138
1.50246
1.70316
1.88512
1.06184
1.14398
0.924819
2.74326
1.88612
1.64894
1.56552
1.75895
2.19237
1.69493
2.25022
1.7536
0.960512
2.19568
1.64457
1.26284
1.44308
1.41958
0.953742
0.5773
1.70279
1.688
1.13913
1.5742
1.73471
0.796276
1.14531
0.665561
0.873466
1.81858
0.800833
3.88998
1.64812
1.44824
2.35241
0.717947
3.04667
0.742791
0.603522
1.12999
2.06913
1.68288
1.31914
1.22687
1.43589
0.675905
1.41328
2.27486
0.718734
0.663074
0.669704
2.36274
3.35991
0.940471
3.16689
1.6681
0.816756
1.18471
2.59671
1.378
0.671732
2.57945
1.35451
1.09083
1.12836
0.755646
1.81818
1.479
3.90039
0.782521
1.15297
1.25868
3.17993
1.77972
2.30993
1.01781
2.78492
3.3151
1.23757
0.675892
0.67883
2.83424
1.58294
1.40276
0.802782
1.05785
1.02843
2.50786
0.940554
1.58245
0.865721
3.31719
1.92732
1.52321
0.732973
0.688709
1.85474
3.31044
0.799223
0.820836
1.55108
1.12185
2.99039
0.768904
0.758261
1.57874
1.64786
3.3588
1.01292
2.43158
1.25093
3.4649
3.22635
2.13742
2.19894
1.9904
2.12074
0.77967
1.23151
0.796178
1.42518
1.07168
1.23686
1.45568
1.70185
3.0633
0.855791
1.00825
2.20565
2.88241
1.9716
0.679021
1.04848
3.19231
1.28651
2.50092
1.88232
1.74855
2.24166
2.99489
0.702404
1.04049
1.71111
1.62004
2.28483
0.656074
1.61051
1.44106
1.22495
1.31891
1.75851
2.19321
1.38983
2.94617
3.01987
2.30807
2.04296
2.41959
3.32666
1.80214
0.695484
1.417
1.03008
1.85966
1.76987
1.98643
4.84914
1.63614
0.797487
0.845543
2.35292
2.03662
1.1293
0.98553
4.1394
1.56183
0.960254
1.31837
3.12633
1.35259
1.3453
2.33139
3.32718
2.08834
1.33331
2.56185
1.36401
1.30634
1.79302
1.72441
1.77772
1.41929
2.68395
0.731931
2.08621
1.37188
1.50315
1.62121
1.30945
3.24892
1.52072
1.65889
2.1313
1.23976
1.29856
1.25016
1.18112
2.53607
1.12728
1.23289
1.13787
0.902423
1.20714
1.68885
1.57062
0.706831
1.64672
1.99345
1.87888
2.4219
3.54295
1.2151
2.59667
2.0372
1.83484
2.94169
1.83109
1.48742
2.43605
1.08396
1.13529
1.451
1.65247
2.80997
1.31682
1.27223
1.41032
2.19422
3.30288
1.20918
1.17038
1.28389
1.9041
1.67259
1.25262
1.14926
1.79189
2.64392
1.10582
1.51386
2.24538
1.12613
1.84146
2.75694
2.57519
2.95849
1.38299
0.762879
2.47759
2.17731
2.75367
1.33021
3.16215
0.731817
2.06502
1.78146
0.720591
1.79504
0.646688
2.21185
1.41247
3.89203
2.6725
2.68151
2.69902
2.43142
1.69725
2.23104
0.745842
2.09892
1.56914
1.48692
3.22389
0.86822
1.92622
2.55409
0.907307
0.960898
1.2089
3.15333
0.898091
1.49346
1.55301
1.34193
1.30771
1.82032
0.852935
1.73077
0.765369
0.806305
1.65429
1.74412
1.07134
1.13439
2.35375
1.12269
1.80189
1.4469
1.62379
1.44762
1.27436
1.96693
2.07012
1.99837
1.76598
2.27251
1.97046
1.05694
2.22019
1.75041
2.23216
3.02638
3.90991
2.01759
1.54855
1.98306
0.412312
1.2849
0.411134
0.559107
0.514468
2.80869
1.02877
2.6898
1.73242
0.924103
2.4436
2.01707
1.24415
1.53584
5.00626
0.988126
1.90921
1.58849
3.05976
2.03705
1.34121
4.06731
0.43345
0.53779
1.218
2.41671
2.73345
3.17958
2.54163
1.41053
1.27918
1.90842
1.03605
5.88069
0.477012
2.50796
1.96371
0.984045
1.37863
0.553503
1.05293
6.50467
4.51686
1.66669
0.998458
4.2919
2.70116
2.48517
0.864192
2.20486
2.44651
1.98039
1.5514
3.4861
1.03883
1.0322
1.08584
1.09185
2.16272
4.32497
3.27772
1.59578
1.22954
1.77408
2.58836
1.63662
1.44203
1.2524
3.80342
4.42138
2.10343
0.614561
6.87545
2.57464
1.56954
4.54134
3.50472
1.77706
2.25542
0.735795
3.79687
3.53502
1.05314
1.21315
1.3836
1.18004
3.6873
1.25007
0.781387
1.14912
4.61355
2.21112
0.418982
2.79687
2.36975
2.48167
1.49948
1.46452
1.44266
5.44038
2.9828
3.38702
2.6354
1.52218
5.44129
2.27879
2.40376
0.974792
0.860878
2.77331
3.46968
1.78233
1.29806
2.6679
1.68494
1.21238
0.519859
0.634651
3.66717
0.976494
1.84851
1.8461
2.00763
1.02792
0.844561
0.410176
0.48658
0.408979
0.442732
0.997588
2.00615
0.838554
1.99296
2.06348
0.601125
1.32731
2.60493
3.07537
1.54874
1.66206
0.724245
2.6379
1.8004
2.4867
2.32253
1.37293
1.47877
2.09943
2.99754
2.60673
2.98238
1.80083
2.38785
3.0892
2.11384
2.47049
1.21275
2.20124
1.13255
2.35455
1.39123
5.7333
6.5735
2.14978
1.77882
1.63093
1.82399
0.862757
0.82701
2.8854
1.83169
1.17241
2.84852
2.55826
2.5449
3.04451
1.26304
1.70852
1.84848
2.15649
1.16998
1.29718
4.04648
1.75487
1.96929
2.6178
2.49187
2.35013
2.379
2.58303
2.33704
2.63368
0.493415
2.03589
4.92874
1.39359
2.525
2.3887
2.64016
2.05688
2.04921
1.86378
1.17791
1.54713
1.78718
2.32837
1.99325
1.39731
1.25144
1.42767
0.944911
0.929715
2.77613
2.07636
2.13079
2.07165
2.41192
3.58808
0.430713
2.34045
2.44291
1.29913
0.705794
3.56622
3.08871
7.93167
2.27687
1.81709
2.90476
2.06045
2.84954
0.586652
2.99527
2.47705
1.1252
0.780771
2.99174
0.640845
0.913616
2.08883
4.46728
3.82961
3.27144
1.52033
1.6542
0.66294
1.92998
0.471474
1.35798
4.59017
0.346267
2.11912
1.83904
1.25608
2.47601
1.44981
1.05847
1.29719
2.25481
0.995781
0.9446
0.782825
2.01687
2.64539
1.27718
1.68485
0.763315
0.622487
2.66239
0.351516
1.81356
1.40913
0.530515
2.06217
1.1443
0.879906
3.87173
0.964538
0.446116
1.19589
1.06891
1.05688
1.55249
2.79698
0.697375
0.588293
0.434456
1.75304
1.34609
0.653075
0.821806
0.781498
3.36576
0.430479
1.46044
1.67121
1.30743
2.03828
1.59699
1.46788
1.07033
0.58989
5.27531
2.91124
1.49072
2.23918
1.05817
3.51515
1.37091
0.671239
2.53383
1.72836
1.29667
1.09735
1.37564
2.71218
2.44231
1.81421
1.51086
3.50637
1.55112
3.09685
1.14034
2.84388
2.63187
0.490801
0.878418
1.66641
1.12078
0.889888
1.88559
1.52013
3.82517
3.11123
2.18578
1.58769
1.08736
1.15591
2.38193
2.78546
2.77363
2.00202
2.52508
2.45068
0.933891
2.23027
3.24799
2.45091
0.774594
2.2256
0.817615
1.00893
3.39393
0.414633
4.15871
2.46513
1.49314
3.10782
1.67599
1.87129
0.888579
1.26916
2.58605
1.57024
3.17159
2.4515
0.596998
0.970138
1.32422
2.78327
1.45095
2.41675
1.6224
1.58652
4.77658
0.790633
1.78186
1.03683
1.6208
1.38795
2.19769
1.96025
0.348126
1.29092
0.348125
2.22708
1.64937
3.75887
2.49269
2.50737
0.889559
1.47966
1.00221
1.36311
2.59138
1.09351
2.34834
3.44539
2.55241
2.15066
0.388032
0.843271
1.34648
2.49309
2.42862
2.32997
1.20703
1.66152
2.02631
0.362206
0.38237
1.5145
1.1994
0.930625
1.63723
1.01086
1.97328
2.52422
1.04293
0.653607
1.38225
3.51507
0.892041
2.14701
1.718
1.85082
2.85888
1.18408
1.19735
2.55999
3.33772
0.514727
1.39932
1.61221
1.09083
2.50949
2.43025
1.73753
0.850702
1.69138
1.86793
2.20266
1.30944
0.656975
0.352842
5.89314
1.50896
2.95043
1.37346
2.44276
2.15429
0.733579
1.67277
1.95864
1.16539
0.703748
1.70069
2.17422
2.48643
0.848328
0.931335
2.92564
1.41698
1.57743
2.4463
1.82836
2.62786
1.76603
3.64563
2.36566
2.10454
1.60516
1.69376
3.0188
0.694564
3.79369
1.41246
1.22196
0.351137
1.15521
1.16959
3.14113
0.539539
2.80175
2.60108
0.573568
1.14868
0.480392
3.65536
0.357993
0.481395
0.471454
4.48737
3.98779
0.457054
1.81195
1.27516
6.38261
1.17662
2.37147
6.26025
1.56459
1.64904
5.35755
1.04915
0.839675
3.53688
4.5556
1.67968
0.855801
3.47067
4.57733
1.63026
2.03216
3.83137
1.46251
2.12168
0.874793
2.41416
3.08755
1.27856
1.14687
1.26874
1.34274
2.01241
1.34645
2.51566
1.07017
1.95883
0.423953
2.1424
4.13822
1.36029
0.482114
2.80863
2.44047
0.399334
1.37468
3.20686
2.87086
2.80411
3.08406
1.03665
2.30695
6.36218
1.99426
1.19177
2.88951
0.904589
1.68235
1.78551
2.69377
1.52163
0.415746
0.420697
2.34934
0.529865
2.06362
0.353183
0.963624
2.24361
0.667171
3.61317
1.04637
1.39781
3.1232
1.34122
3.50481
0.84242
0.787393
0.776469
0.441053
2.44768
2.37511
1.13336
2.22399
6.25227
7.43649
2.3576
1.66985
1.21986
1.25085
2.6637
1.26087
0.72052
2.94574
3.54147
5.41149
2.84473
1.75154
0.964505
3.79902
3.80955
3.94848
3.46584
2.06422
2.16676
1.93255
0.591063
1.04411
2.44127
4.87253
1.89212
2.41875
0.418157
0.429479
2.69354
0.746689
2.67376
1.39122
1.69138
0.536515
3.25594
1.50745
1.28054
0.348756
1.2315
2.16335
2.57519
1.39675
4.62745
4.21091
0.757858
3.52939
1.52857
0.748998
1.01572
1.48856
1.19102
1.39335
2.13684
2.14845
5.18396
1.80881
1.82374
2.23657
0.439078
1.28264
1.25291
1.60719
2.19885
1.64366
0.966928
0.896869
4.66003
5.25346
1.86583
2.80366
0.421815
2.98123
2.66408
1.53335
1.2542
0.514312
2.76083
2.0855
1.28202
1.07478
1.75582
3.15527
4.47223
2.3584
1.60626
1.13378
1.51552
3.09747
2.85964
2.22398
2.04315
1.27663
5.48481
2.31451
0.387642
1.8758
6.90706
0.345567
0.345958
1.18896
8.53762
7.31542
0.913875
1.08582
6.23508
1.06888
2.85081
0.412126
2.16151
1.70639
5.77757
0.525206
1.83083
1.99399
1.14626
4.65961
0.394821
0.700555
1.63264
1.56145
1.67085
1.12045
2.00979
4.21239
3.74973
1.68751
1.39302
1.72943
0.450935
6.54875
0.849909
0.881806
1.15093
1.46626
2.12368
1.28433
1.1855
4.0987
2.22499
2.06056
0.371365
2.83319
0.447821
2.83934
1.23121
0.781731
0.895248
2.83231
1.28359
1.35996
1.18984
0.903741
0.879108
2.09954
2.50843
1.93544
5.34644
1.88098
3.60128
0.737505
0.700704
1.81387
2.55687
1.2311
2.09515
0.953948
2.15642
6.10104
7.36215
0.438363
0.366672
1.37032
2.04888
3.98864
0.635093
1.52532
0.374009
0.501911
0.501983
3.69449
7.11421
4.26538
1.58945
2.05399
2.40627
0.718323
1.38848
1.26262
0.906393
0.783811
0.64182
1.42259
1.22056
2.36558
1.22712
2.18351
2.17835
1.58648
0.957039
5.26047
1.56503
2.43745
1.05931
0.954958
0.78891
3.66494
3.10985
3.20065
2.17722
0.750141
0.828943
0.682647
2.54276
2.40436
1.80809
1.90393
2.41374
2.72836
1.9788
2.13955
1.39936
0.347135
0.345794
0.705391
4.37128
2.21271
0.988007
0.931491
1.17558
1.1359
1.2945
1.53408
0.647531
0.468625
0.409907
0.928228
0.459723
0.794997
0.450855
2.39253
0.954125
0.768072
0.440809
3.18724
3.35205
1.40078
1.41831
2.26373
1.37246
0.354341
0.367259
0.423002
1.18182
2.99675
3.90399
3.98851
1.93776
1.54404
2.08223
0.38423
0.350879
1.46058
2.00427
0.400674
0.39635
2.83034
1.0068
0.911944
0.405408
4.14685
2.0909
1.41767
1.737
2.48567
2.35592
1.71871
1.63061
3.39814
0.686581
2.03871
3.51124
1.55047
1.12866
0.921401
2.06444
2.23342
2.38388
1.1874
0.418152
0.83226
1.04358
1.98756
8.68714
2.2757
1.87739
1.27039
1.41397
1.67125
1.92897
1.895
1.61866
1.94659
1.08684
1.10995
1.13718
1.25708
1.11745
2.74812
2.62337
2.38822
3.03694
3.07609
2.93411
2.91032
2.97371
2.51304
0.379487
2.19413
0.472315
0.647819
1.74875
1.60406
1.40729
1.5955
1.99018
1.685
1.36416
1.84545
1.61683
4.99199
4.94925
4.66511
0.815935
2.95845
1.85955
1.85067
7.44769
1.2424
2.81477
1.757
3.57412
0.349817
1.74045
4.54183
1.74392
2.0036
0.360248
0.363549
0.802308
0.439773
1.96096
2.3166
2.27206
1.78097
1.12178
1.82615
2.26422
1.57952
1.40699
3.36233
2.81271
2.42181
0.450272
3.44233
1.75687
1.11238
0.990917
3.12874
2.27767
0.48802
2.31411
2.04342
0.386014
3.35926
2.02573
0.49
1.5571
2.5952
1.13603
1.19426
0.375457
1.54792
1.72997
0.38234
2.07299
0.841998
3.25362
0.754614
1.0366
3.1489
2.21249
2.77468
1.16435
1.77248
1.59533
2.02995
2.1863
1.75407
1.77949
1.14633
1.23415
0.965987
0.451555
1.44358
1.59714
3.51165
3.87551
8.23222
1.06283
1.15873
2.67146
3.87374
1.42247
1.14716
1.20497
1.21815
1.4783
0.346353
2.00282
3.22759
0.752759
2.57579
1.81664
0.375309
0.429654
2.00268
1.9226
1.31564
2.30723
0.430887
2.17721
0.8513
2.8225
1.37706
4.40483
0.3768
0.693823
0.691781
1.6172
0.453478
3.10978
0.353475
2.49173
0.957222
1.49113
2.04116
1.59706
2.46524
5.86872
3.01635
0.959522
2.01258
1.41571
0.41785
0.661672
2.61268
0.638842
1.98807
2.60622
2.22724
4.59704
1.43223
0.495834
5.11911
4.271
0.902342
3.71658
1.11651
3.91182
1.48109
1.18828
0.939581
0.981985
0.969403
1.36583
5.90684
0.920671
1.01054
3.77071
2.48681
1.15027
0.946706
0.567959
0.878444
1.80154
1.51671
3.18162
2.13098
1.32107
2.91508
1.29921
1.5705
0.733039
0.413289
1.68665
1.6345
3.89201
2.28141
3.0651
3.52725
3.22987
0.455753
3.8584
1.47357
7.69536
0.399892
5.12049
5.14588
5.86898
2.37874
1.66184
3.00364
3.16755
0.867055
0.353363
3.84192
3.88214
1.34817
4.89874
5.24785
1.184
1.05512
5.63693
0.40118
3.36796
0.633741
5.63169
0.690179
2.21938
2.2083
0.364622
1.64568
1.86457
0.413735
2.6595
1.78417
1.91057
2.53083
3.40394
0.504132
0.468067
1.35375
1.30754
2.54925
0.347002
1.45617
3.59543
2.01743
2.7409
5.522
5.30386
0.369867
0.595093
2.67005
2.26301
2.55643
2.04835
4.64637
0.360001
1.78361
2.51526
0.491508
0.431062
0.36079
0.355129
2.98814
0.724067
1.52234
1.86859
2.85919
1.95877
2.84324
2.24095
3.52018
3.5922
1.54035
0.396649
1.70344
4.87954
2.78601
0.420788
0.417967
4.42423
2.31981
1.9569
3.7933
0.763732
1.7056
2.44732
2.82154
1.66768
0.868677
0.955938
1.02301
1.67889
2.98248
2.88218
0.523757
2.63534
0.405155
2.38089
1.10172
0.59673
2.08265
0.888198
3.73963
1.21505
1.32499
3.26032
0.386792
2.17092
1.61329
3.75225
1.44455
2.02045
4.34451
1.42168
2.39004
1.07269
1.58522
0.358577
0.441529
0.389619
1.56085
0.683939
3.89803
3.65856
0.36766
3.0148
2.9915
5.43497
2.38047
4.28391
4.03396
1.28588
0.380842
7.79283
0.915583
0.918931
4.04655
1.56336
3.74345
3.48326
3.77511
3.97689
0.789006
3.80107
1.28164
0.522093
0.494219
3.17672
1.83333
0.858223
0.871826
2.73025
0.757011
0.651255
1.936
2.36907
1.01435
1.78238
3.22916
2.40224
2.81914
1.06522
1.11633
3.59248
3.14367
1.49264
2.49302
2.46171
3.00728
0.961898
0.400426
3.12997
3.25472
0.879235
3.61781
0.944831
3.09254
0.456088
3.63716
1.32734
1.42926
0.964457
1.1388
3.11311
0.39847
1.02549
0.393774
3.75645
3.73552
3.76404
1.06396
2.58322
1.73434
0.953451
1.24369
1.29325
3.31159
4.18037
1.52786
3.5395
3.78658
4.65367
4.06827
4.06758
1.37463
1.26742
1.37208
2.2513
3.95742
2.06993
1.85049
2.47632
1.26629
0.989098
0.625943
0.459755
0.927987
0.949836
0.460251
5.76736
0.435462
0.361588
3.61491
2.4853
0.342709
0.35426
2.03418
6.19388
0.358137
1.60676
1.67183
0.409399
0.453755
0.831225
3.96955
3.7705
2.05589
0.376686
3.89663
3.9419
3.02699
1.42113
0.353919
0.350286
5.76473
2.96953
3.39998
6.303
1.617
1.45175
2.95407
1.16347
2.71327
2.21737
2.81623
4.20441
1.75468
2.22173
1.89333
1.93694
1.33197
2.32574
2.12426
3.85654
1.42005
0.45845
0.886379
0.620831
1.49759
1.55976
0.469723
3.81183
2.96136
2.35723
2.34476
0.597034
0.657496
0.977197
0.458928
1.7887
2.08679
1.51176
3.73527
1.65487
1.76703
1.89223
2.66664
2.38416
1.2085
3.41563
3.4615