/*--------------------------------*- C++ -*----------------------------------*\
| =========                 |                                                 |
| \\      /  F ield         | OpenFOAM: The Open Source CFD Toolbox           |
|  \\    /   O peration     | Version:  2212                                  |
|   \\  /    A nd           | Website:  www.openfoam.com                      |
|    \\/     M anipulation  |                                                 |
\*---------------------------------------------------------------------------*/
FoamFile
{
    version     2.0;
    format      ascii;
    arch        "LSB;label=32;scalar=64";
    class       volScalarField;
    location    "10";
    object      nut;
}
// * * * * * * * * * * * * * * * * * * * * * * * * * * * * * * * * * * * * * //

dimensions      [0 2 -1 0 0 0 0];

internalField   nonuniform List<scalar> 
76405
(
0.000979937
0.00109544
0.00121024
0.00113349
0.00103648
0.000914198
0.000942357
0.000985902
0.000734642
0.000857358
0.000807706
0.000903364
0.000962035
0.000752701
0.000661364
0.00087744
0.000713214
0.000881245
0.000850154
0.000870227
0.000873451
0.000899545
0.000926886
0.000918044
0.000986013
0.000941169
0.000972403
0.00110182
0.00115482
0.0012129
0.00115452
0.000948803
0.001355
0.00116505
0.00141192
0.000770011
0.00101839
0.000948058
0.000968926
0.000954636
0.00103171
0.000928253
0.00118085
0.0009864
0.000819519
0.0010944
0.00137382
0.0010619
0.000766614
0.000836688
0.00143229
0.00127798
0.00129666
0.000813746
0.00114568
0.00081079
0.000969598
0.00130615
0.000837185
0.000776825
0.00110436
0.00123647
0.00115521
0.000990756
0.000971134
0.00099273
0.000845987
0.000840846
0.000875946
0.000800253
0.000795844
0.000823074
0.000982631
0.00143979
0.00132791
0.00109115
0.00131678
0.000806491
0.000795227
0.00114393
0.00111246
0.00109543
0.00103876
0.00107625
0.00123595
0.00112976
0.0011444
0.00126482
0.00108618
0.000831478
0.00164927
0.00141836
0.00119413
0.00108506
0.000882436
0.00128871
0.00131641
0.000825235
0.000841393
0.00112844
0.00106237
0.00152831
0.00104165
0.000860799
0.000948774
0.000940517
0.00083007
0.000874259
0.000954383
0.001192
0.000817394
0.000843532
0.000984254
0.00100162
0.00164094
0.00123831
0.00084275
0.000889197
0.000932313
0.00123592
0.00122956
0.00117119
0.000915077
0.000886396
0.00106359
0.000999473
0.00083835
0.00116395
0.00133865
0.000996742
0.00111927
0.00109766
0.000907976
0.00106655
0.00104007
0.00113342
0.000827521
0.0011819
0.00097001
0.000995779
0.000875683
0.000932147
0.000879661
0.00100611
0.0010089
0.00144925
0.00107165
0.000902615
0.00130055
0.000959658
0.00120545
0.00147548
0.00135484
0.00109594
0.00119163
0.000981695
0.00107544
0.000952799
0.0012994
0.00122473
0.000830879
0.000997178
0.00134286
0.00126519
0.000915751
0.00090902
0.000855594
0.00127214
0.00113937
0.000975792
0.00105037
0.000818603
0.00103464
0.000940404
0.000833725
0.000850201
0.000710023
0.000763336
0.00096779
0.00102306
0.00100288
0.00111356
0.00101128
0.000974945
0.0013979
0.000808875
0.000922183
0.00124963
0.0011452
0.000910377
0.00107262
0.00105922
0.000810519
0.00121626
0.00103793
0.000879485
0.00101487
0.00134841
0.000925269
0.0010155
0.00109531
0.000909774
0.00131106
0.00098237
0.00103099
0.0010493
0.001138
0.00103864
0.00107712
0.00100489
0.000878557
0.00124813
0.0010694
0.00128707
0.00095784
0.000925279
0.00130878
0.00137682
0.00077703
0.00100776
0.00104776
0.00115256
0.00105998
0.00108263
0.000792452
0.00101172
0.00103478
0.00111813
0.000824227
0.00129329
0.00132371
0.00112664
0.00123262
0.000891342
0.000985446
0.000943113
0.000762136
0.000947505
0.00100431
0.00173734
0.000736527
0.0010493
0.00100795
0.00110419
0.00114598
0.001265
0.00116441
0.000851106
0.00136203
0.00109588
0.00088224
0.00114602
0.000959969
0.001053
0.000909504
0.00127888
0.00135009
0.00117945
0.0011365
0.00129923
0.000982019
0.00129295
0.000848607
0.00120059
0.000785899
0.000976193
0.00135908
0.000969677
0.000887475
0.00106301
0.000811004
0.00110276
0.000802943
0.00129831
0.00128481
0.00124537
0.0010032
0.000827693
0.00128342
0.00089654
0.00127008
0.00100744
0.000945104
0.000991377
0.00098801
0.000966502
0.000934231
0.000838636
0.000863175
0.000767902
0.000906259
0.00111336
0.00104622
0.000882363
0.0010376
0.00100671
0.00105552
0.000832376
0.00135794
0.000860752
0.0012097
0.00086288
0.00082605
0.000876832
0.000934106
0.00125212
0.00101586
0.00116689
0.000863567
0.00083009
0.000913753
0.000988812
0.00123765
0.000805975
0.00100542
0.00103999
0.00115552
0.00111737
0.00118233
0.000833669
0.00105237
0.00100415
0.000846243
0.000820794
0.00105741
0.000830835
0.000899581
0.000864795
0.000985392
0.000821832
0.000884265
0.000811435
0.000922928
0.00101999
0.00114136
0.000953663
0.00125296
0.000952244
0.0010918
0.00105519
0.000873352
0.00130898
0.00104416
0.000600092
0.00101555
0.00125206
0.000859923
0.0010468
0.00137628
0.00116356
0.000906518
0.000924637
0.00134012
0.00100345
0.000974317
0.000888868
0.000935948
0.00110141
0.00112415
0.00093814
0.0011007
0.00100587
0.000843576
0.000900487
0.00107591
0.00106377
0.000963747
0.00128437
0.000877257
0.00218088
0.000837886
0.00127651
0.00130813
0.000846533
0.00105024
0.000990752
0.00090334
0.000864443
0.00087511
0.00131424
0.00106679
0.00100238
0.00104085
0.00118553
0.000982805
0.000852225
0.00101336
0.00117021
0.00135045
0.000884384
0.000826024
0.000827664
0.000775228
0.000790428
0.00132439
0.00108031
0.000783698
0.000969356
0.00108138
0.000960836
0.000732471
0.000851037
0.00138316
0.00105011
0.00114832
0.000978064
0.000887008
0.00106463
0.00123963
0.0008252
0.000824611
0.00131175
0.00164719
0.00138312
0.000986413
0.00096971
0.000958575
0.000949888
0.00121999
0.00119924
0.00117659
0.00124365
0.000871028
0.00121532
0.000968239
0.000954156
0.000827931
0.000826075
0.00103918
0.00114527
0.000966156
0.000939362
0.00152868
0.00104688
0.00104513
0.00115328
0.00123727
0.00104575
0.00123098
0.00084603
0.000882381
0.00118664
0.00089526
0.00112177
0.00113915
0.00108701
0.00113558
0.000851718
0.00104902
0.000969973
0.000937675
0.00130156
0.000973689
0.00122919
0.00115842
0.00121116
0.00104266
0.00077674
0.000973848
0.000990436
0.00142309
0.00105123
0.00129532
0.00119669
0.00177326
0.000871045
0.00115747
0.000901581
0.00113521
0.00100741
0.000873315
0.00125181
0.00134474
0.000894537
0.00101085
0.0010329
0.00113137
0.00089587
0.000936284
0.000703884
0.000955558
0.000905538
0.00100751
0.00116937
0.0013593
0.00102895
0.000991503
0.00116499
0.00105566
0.000951037
0.0013368
0.000951584
0.00142433
0.000969358
0.00118249
0.00086627
0.0013864
0.000924211
0.00135498
0.00129036
0.00110654
0.00069015
0.000925539
0.00102547
0.000978989
0.000913878
0.000916
0.000937983
0.000813192
0.000957484
0.000955992
0.00118259
0.00103793
0.000845051
0.00123754
0.000833804
0.00102296
0.00109433
0.000906527
0.000772734
0.00108918
0.00120521
0.00113968
0.000861128
0.00085854
0.00137487
0.00131755
0.000979453
0.00103523
0.0012778
0.000846238
0.000791516
0.000848362
0.001337
0.00109384
0.00111922
0.00112063
0.00105012
0.00114978
0.000946291
0.000837379
0.00107362
0.000789565
0.001036
0.000933839
0.00122676
0.00123818
0.000967824
0.000931629
0.00118932
0.00112175
0.00101408
0.00108099
0.00112581
0.00103536
0.00115704
0.00108852
0.000802173
0.00101374
0.00105381
0.000777994
0.00103031
0.00113926
0.00116374
0.000850468
0.00124251
0.000970189
0.00139411
0.000885868
0.00088609
0.00155055
0.000866401
0.00126454
0.000947633
0.00116985
0.00104116
0.0012607
0.00117421
0.000906771
0.0010002
0.00117691
0.00114348
0.00111352
0.00120645
0.000985959
0.000896566
0.000881758
0.00151429
0.00137022
0.000988099
0.00121217
0.00108363
0.00102463
0.00127544
0.000847647
0.000866645
0.000829922
0.000989067
0.000907628
0.000988695
0.000877631
0.000987996
0.0013155
0.00106243
0.000996264
0.00110203
0.0012773
0.00121288
0.00120724
0.000976439
0.000915021
0.000899032
0.000952821
0.000834676
0.000947102
0.000824116
0.00113522
0.0009436
0.000786737
0.000917129
0.000908212
0.00114965
0.000899255
0.000865565
0.00114976
0.000846827
0.000832925
0.00118519
0.00100419
0.000849982
0.000961051
0.0010574
0.00115442
0.00107943
0.000789343
0.00120227
0.00115315
0.000949952
0.00126043
0.00108034
0.000804839
0.00112997
0.000961886
0.000743055
0.00107409
0.000998867
0.00100967
0.00131334
0.00080672
0.000828544
0.000833233
0.00101437
0.000892055
0.00100766
0.00110307
0.0011048
0.00102621
0.00104592
0.000923227
0.00148876
0.00154623
0.000868007
0.00110775
0.00102769
0.00118773
0.00120911
0.00129051
0.00103692
0.000929991
0.000856249
0.00127034
0.000867997
0.000898693
0.0012996
0.00135018
0.00109062
0.00085379
0.000925749
0.000946041
0.000888951
0.00110152
0.000981163
0.00123299
0.000925274
0.000976199
0.00136307
0.00094152
0.000903563
0.000838799
0.00116412
0.000953036
0.000938965
0.000825165
0.000819677
0.000702251
0.000710821
0.000758407
0.000732095
0.000939267
0.000976238
0.000880752
0.00103663
0.000751529
0.00106918
0.00113121
0.00126549
0.00133253
0.00132695
0.00119837
0.00100855
0.00121677
0.00086382
0.00100088
0.000911174
0.00106901
0.00123395
0.00149785
0.00138109
0.000918157
0.000852467
0.00082683
0.000967007
0.00072993
0.000962443
0.000937885
0.000870674
0.00118358
0.00101927
0.000974162
0.000931441
0.00115692
0.000985879
0.00102227
0.000909252
0.00104325
0.000964451
0.00101149
0.000865469
0.00126656
0.00112566
0.00128028
0.00117106
0.000876433
0.00084643
0.0012111
0.00110193
0.00102015
0.000936682
0.000801849
0.00159174
0.000946526
0.00135875
0.000842469
0.000960869
0.00112149
0.000976657
0.00103359
0.000992305
0.00105673
0.00131865
0.000678393
0.000772496
0.000886208
0.00100051
0.000849585
0.00122303
0.000961704
0.00114906
0.000828192
0.000902095
0.00115891
0.000848284
0.000766807
0.000730667
0.00142423
0.00111033
0.000956249
0.000973335
0.00091665
0.000868335
0.00091192
0.00115796
0.000961255
0.000852916
0.000864935
0.000797987
0.000977046
0.000799308
0.000969886
0.00100815
0.000982384
0.00109361
0.00170287
0.00109967
0.00127209
0.000946817
0.000970495
0.00095767
0.00144441
0.00139256
0.00109701
0.000873103
0.00108369
0.00109649
0.000897247
0.001247
0.00120024
0.0010335
0.000902413
0.00121772
0.00119938
0.000643714
0.000955973
0.000806148
0.000979034
0.000958778
0.00115095
0.000894468
0.000961256
0.00111001
0.00100287
0.0010913
0.0011107
0.000860991
0.00124158
0.000870081
0.000941491
0.000933383
0.00095887
0.000962328
0.000873465
0.000979102
0.00103211
0.000720902
0.00136922
0.000989131
0.00119229
0.00116881
0.00110461
0.00106928
0.00097257
0.000843444
0.000989035
0.000990617
0.00100807
0.000791131
0.000892966
0.00129002
0.00128382
0.00100659
0.00120307
0.00141214
0.00101135
0.000950008
0.00112882
0.000831554
0.00101497
0.00100181
0.00153816
0.00122722
0.00106726
0.000938734
0.00113145
0.000992193
0.00112019
0.00085296
0.000958867
0.000836293
0.00124984
0.000955464
0.00110858
0.000847178
0.000868732
0.000995014
0.00116842
0.000984928
0.000857026
0.00116383
0.00102634
0.00110425
0.000759838
0.000944918
0.00101265
0.001043
0.00142563
0.00102075
0.000848307
0.000861915
0.00078846
0.0011853
0.000940667
0.000988656
0.00102668
0.000995581
0.00100345
0.00106712
0.00110446
0.001137
0.00077772
0.000824357
0.00101851
0.00131297
0.00122238
0.00129246
0.00125417
0.00114739
0.00124623
0.00121123
0.00124527
0.00093869
0.000970273
0.000863094
0.000846623
0.000841193
0.000866535
0.00078686
0.000821345
0.00126742
0.000802393
0.000820164
0.000991353
0.000828104
0.00142492
0.00165069
0.00159728
0.000931175
0.00107639
0.000887016
0.00120012
0.00114553
0.00118461
0.00101535
0.00101431
0.00144074
0.00095146
0.00107056
0.00110489
0.00121471
0.000965642
0.000902924
0.000920814
0.0012344
0.00101776
0.00128097
0.00130333
0.00119581
0.00132638
0.000800127
0.00109729
0.00107088
0.000844277
0.00119942
0.00107936
0.0010072
0.0011343
0.000842426
0.00143624
0.000897339
0.0012851
0.00134502
0.00104281
0.000897428
0.000898879
0.000861425
0.000894163
0.000946383
0.00112166
0.000995603
0.000894063
0.00121844
0.000704288
0.00120071
0.000819971
0.000962568
0.00123382
0.00119086
0.000950269
0.000797748
0.00109241
0.00111689
0.00111858
0.00100801
0.00125067
0.00133584
0.00101005
0.000840583
0.00098837
0.000903541
0.000842274
0.0013778
0.00131281
0.00139603
0.000699158
0.000801978
0.000984499
0.000850803
0.000963212
0.0009611
0.00104066
0.00109246
0.00114259
0.000792844
0.00115103
0.00104123
0.00111525
0.00106809
0.00108924
0.00116389
0.00123163
0.00128835
0.000936611
0.000819552
0.00148534
0.000960655
0.000975491
0.000884983
0.00100837
0.00099748
0.00106562
0.000983196
0.00119442
0.00118993
0.000953575
0.0012689
0.00100709
0.00104047
0.000904042
0.00125367
0.000999821
0.00102948
0.000877289
0.000926357
0.00100813
0.00136334
0.000988874
0.000902879
0.00101693
0.000825029
0.00102445
0.000795917
0.0010071
0.00120622
0.00126883
0.00104917
0.00127872
0.00116423
0.000898301
0.000961356
0.00139503
0.000956005
0.000978182
0.00139071
0.00126472
0.00141921
0.00078593
0.00089556
0.000745398
0.00119232
0.00097984
0.00098344
0.000751291
0.00102753
0.00085937
0.00117231
0.00109069
0.00100341
0.000988777
0.00114725
0.00158742
0.000721497
0.000987541
0.0011355
0.00142911
0.000871797
0.000976387
0.000941627
0.00101673
0.00131932
0.0012291
0.00106497
0.00111359
0.000803058
0.00118269
0.000970964
0.00105225
0.000901646
0.000962623
0.000885489
0.000825147
0.00150342
0.00143238
0.00108723
0.001319
0.00135259
0.000956572
0.000918245
0.000955237
0.000832732
0.000931152
0.000956166
0.00163173
0.0016705
0.00106806
0.000921012
0.00112026
0.00113118
0.000954107
0.000938616
0.00100199
0.00101164
0.000868257
0.0010674
0.00109822
0.00113865
0.00104021
0.00104625
0.000994815
0.001269
0.00104907
0.00133409
0.000866429
0.000918615
0.000936961
0.000998356
0.000994875
0.00110318
0.000960307
0.00128338
0.00094925
0.00111238
0.00107124
0.00133666
0.000932113
0.000970725
0.00117391
0.00117671
0.00162178
0.00095156
0.000860567
0.0011584
0.000858567
0.0011821
0.00133837
0.00137473
0.00092559
0.00134224
0.00126307
0.000749622
0.000916272
0.00120486
0.00114631
0.000955211
0.00115775
0.00105533
0.000880067
0.00101163
0.000987133
0.000985576
0.000952966
0.000918022
0.00107786
0.00114275
0.00115354
0.00139524
0.000952955
0.00103256
0.00124542
0.00114724
0.00129233
0.00101079
0.000989838
0.00137553
0.00106281
0.00090283
0.000895891
0.00123491
0.000906774
0.00101757
0.00127315
0.00101917
0.00102606
0.00106036
0.00101437
0.000913682
0.000897326
0.000957304
0.00103418
0.000846413
0.0011988
0.00122396
0.000967923
0.00106985
0.000882772
0.00106515
0.000975845
0.000852626
0.00104201
0.0007226
0.00108765
0.000785234
0.000779807
0.00104856
0.000925906
0.00113172
0.000869072
0.000982028
0.00119241
0.000928193
0.00109757
0.000868346
0.00114972
0.00110267
0.000930466
0.000935658
0.00101975
0.000874495
0.00103021
0.000904527
0.00125429
0.000900318
0.00100201
0.00107296
0.00126094
0.00102317
0.00139146
0.00102962
0.00114465
0.00125634
0.000991858
0.000861347
0.000783378
0.000780042
0.0011686
0.00125944
0.00100236
0.00106666
0.00109794
0.0011255
0.000925006
0.00104285
0.000854862
0.000869562
0.000892748
0.000895617
0.000857136
0.000996168
0.000953098
0.00118659
0.000993029
0.000976503
0.00131423
0.00127875
0.00100477
0.00100225
0.000770278
0.00102701
0.00110101
0.000759359
0.000807967
0.00125036
0.00109268
0.000889609
0.00118156
0.000948909
0.00103752
0.000996631
0.00101065
0.00125069
0.001171
0.000982422
0.00139753
0.00100521
0.0012079
0.00086349
0.00118338
0.000957678
0.000980464
0.000993953
0.000808472
0.00107505
0.000915706
0.00114219
0.00101238
0.00124641
0.00102229
0.0011544
0.000776022
0.00119174
0.00102085
0.000753783
0.00096292
0.000958389
0.00137523
0.0011533
0.000888909
0.00119117
0.00113447
0.00140366
0.00122846
0.00109686
0.00110651
0.00115846
0.00114224
0.00102955
0.00131456
0.00090537
0.000864283
0.00110972
0.000756543
0.00103684
0.00088632
0.000824368
0.00100561
0.00107345
0.000958063
0.00148182
0.000908262
0.000928752
0.00122075
0.00101727
0.000955725
0.000960232
0.00102123
0.0013341
0.000957388
0.00122973
0.00131206
0.00101532
0.000968725
0.00100638
0.0013399
0.001137
0.00094737
0.000916048
0.000913021
0.0011344
0.000988349
0.000944773
0.0009868
0.000979336
0.000645248
0.00141546
0.0014377
0.00145695
0.0010084
0.000920714
0.00107189
0.0010819
0.00178692
0.000923414
0.00109718
0.000988639
0.00107614
0.00100171
0.00102129
0.000924012
0.00111296
0.0013632
0.0012984
0.00118779
0.000888013
0.000970367
0.000960792
0.00088555
0.00096234
0.00100003
0.000886144
0.00126444
0.00135569
0.000880103
0.00103392
0.000910058
0.00089725
0.000758107
0.000960995
0.000730308
0.000792757
0.00119101
0.00107718
0.00118146
0.00108433
0.000890764
0.0011499
0.000933751
0.00106868
0.00132431
0.00133185
0.000895991
0.000867597
0.00123323
0.00117596
0.00113043
0.00109433
0.00100297
0.00128387
0.00111023
0.00134379
0.000878573
0.000846865
0.000990903
0.001003
0.00109394
0.000997706
0.000997054
0.00135119
0.00142844
0.000996474
0.000989417
0.00100066
0.00102792
0.0012924
0.00101595
0.00128957
0.0012258
0.000983705
0.000978483
0.00114313
0.000907172
0.00100469
0.00112384
0.00109676
0.000811941
0.00120548
0.00121813
0.000910427
0.00121335
0.000829355
0.000887667
0.00103369
0.000979333
0.00123999
0.00100347
0.00102742
0.0010359
0.00131917
0.00108286
0.000834938
0.000851181
0.000964313
0.000931813
0.00107773
0.00101558
0.000996433
0.00103387
0.00106894
0.000843124
0.000744337
0.00103857
0.00103655
0.000974893
0.000960795
0.000946057
0.00095531
0.00121945
0.000896738
0.00099723
0.00091486
0.00118948
0.000995098
0.000989826
0.000898684
0.00123207
0.000952134
0.0010019
0.00120676
0.00134301
0.00122388
0.0011036
0.00106797
0.00106784
0.00106896
0.000905724
0.000965454
0.0011545
0.000859317
0.00120656
0.00121578
0.00123076
0.00127305
0.0010013
0.000876601
0.0009002
0.000931121
0.000819626
0.000898919
0.00110454
0.00104218
0.00104778
0.000941157
0.00102355
0.00102583
0.000774746
0.0011647
0.00140176
0.00105125
0.0011573
0.00103203
0.000889665
0.000968377
0.00107118
0.00101505
0.00115661
0.000811647
0.000987371
0.000945956
0.00116336
0.000997399
0.00115617
0.0010486
0.00139826
0.000771001
0.000973015
0.000903758
0.00109305
0.00127132
0.0010684
0.00126914
0.00120655
0.00113815
0.000957343
0.000911205
0.000975629
0.00109737
0.0010612
0.00128752
0.000781803
0.000889011
0.00128361
0.00110598
0.00115443
0.00134447
0.00120464
0.0011308
0.00114423
0.000966182
0.00134472
0.00105488
0.00106013
0.00102097
0.000882347
0.00131531
0.00119272
0.00107206
0.00152812
0.00100936
0.00101621
0.000941882
0.000814253
0.00105253
0.00101414
0.000799979
0.000917461
0.00116664
0.00129336
0.000979362
0.000825412
0.00131979
0.000761695
0.000861342
0.000844763
0.000780557
0.000821428
0.0011583
0.000993712
0.000958448
0.00101322
0.00111451
0.00100733
0.000963721
0.000945165
0.000954309
0.000973655
0.00101159
0.00100586
0.00104436
0.000935485
0.000978719
0.00125806
0.00115157
0.000736201
0.000922004
0.000832069
0.000916436
0.000993563
0.000827916
0.00110211
0.00120131
0.00115755
0.00101966
0.00133453
0.000971504
0.0011861
0.00108689
0.000842716
0.000999428
0.000783631
0.000967761
0.00110976
0.00103645
0.00106818
0.00119822
0.000761756
0.000790377
0.00104914
0.000905469
0.000942428
0.00128786
0.00114972
0.00117881
0.000787291
0.00116351
0.00114605
0.00128266
0.000962552
0.000756481
0.00122338
0.00108318
0.00100492
0.00121569
0.000778575
0.00169977
0.00101042
0.00103445
0.00102841
0.00105349
0.000926641
0.00124319
0.00133473
0.000954299
0.000992292
0.000938818
0.000889349
0.000966886
0.00102695
0.00119313
0.00100063
0.00111187
0.000825413
0.00108218
0.0010789
0.000869964
0.000838142
0.000906941
0.00145953
0.00134271
0.00130445
0.00120914
0.00100655
0.00127646
0.000825227
0.000878766
0.00117482
0.00123421
0.000792437
0.00104008
0.00113622
0.000879918
0.000841883
0.000869453
0.00106115
0.00108065
0.00126788
0.0013333
0.00113384
0.00118025
0.000862147
0.00101982
0.000902423
0.00106802
0.000723318
0.000958972
0.00113972
0.000799448
0.000921838
0.00109974
0.000874537
0.000894658
0.000816663
0.000914921
0.00161354
0.000876056
0.000911559
0.00105173
0.000952135
0.00110028
0.00122141
0.000861629
0.000873715
0.000787424
0.00140538
0.000841717
0.000975755
0.00116242
0.00123069
0.00136279
0.00113823
0.000991052
0.00115248
0.00134254
0.00124683
0.00100882
0.000849585
0.00146272
0.001128
0.000961381
0.000841603
0.00109399
0.000974177
0.00101215
0.00115055
0.00102914
0.00104
0.000997957
0.000847602
0.000741938
0.00104954
0.00131279
0.000874775
0.000927409
0.0009694
0.00100605
0.00094742
0.0009911
0.00111644
0.000951748
0.000943797
0.00109125
0.00127666
0.00125416
0.000981956
0.00111257
0.000988692
0.000816185
0.00142043
0.00105105
0.00095062
0.0010685
0.0015649
0.00128133
0.00100847
0.00132475
0.00125503
0.00097937
0.000953256
0.000838703
0.00102846
0.00116525
0.00102784
0.000902489
0.00115396
0.00159637
0.000966464
0.000843203
0.000846514
0.00092295
0.000943659
0.000944861
0.000850004
0.00077629
0.0011013
0.000876926
0.000992496
0.00110096
0.00133226
0.0011266
0.0010378
0.000853905
0.000949811
0.000934206
0.00134796
0.00100373
0.000808841
0.000994023
0.00102723
0.00148105
0.00137789
0.000950885
0.000982334
0.000959034
0.00104403
0.00109748
0.00111531
0.00116377
0.00100543
0.000941968
0.00141499
0.000734582
0.00104334
0.000956797
0.000844251
0.00116558
0.000815203
0.00085782
0.000820839
0.00111838
0.00101616
0.000920601
0.00126758
0.000822454
0.00105676
0.000543305
0.00132134
0.000919932
0.0010122
0.000985888
0.00130202
0.00107501
0.00100393
0.00137677
0.00098627
0.000828783
0.000900333
0.00119179
0.00103018
0.000978274
0.00106098
0.00104839
0.00129191
0.000919724
0.00078581
0.000936843
0.0011234
0.00098781
0.000970836
0.00107222
0.00107446
0.00123472
0.00088744
0.000864124
0.000932606
0.000960259
0.00100738
0.000840497
0.0012341
0.000962456
0.000884281
0.00119167
0.000850599
0.000854065
0.000871409
0.000865783
0.000904118
0.00113522
0.00134587
0.00102096
0.000892764
0.00113309
0.00104799
0.000974441
0.00108605
0.000907655
0.000900592
0.000977877
0.00110814
0.000820322
0.000882087
0.00104742
0.00123456
0.000949651
0.00115962
0.00105088
0.00142246
0.00109918
0.00130653
0.000806765
0.00195941
0.00103629
0.00102508
0.00144393
0.00131013
0.00129936
0.00130383
0.000842267
0.000777516
0.00123085
0.00132864
0.00104292
0.000911488
0.00104707
0.00111639
0.00128354
0.000971817
0.000711858
0.00110209
0.00118895
0.00102562
0.000863951
0.00135501
0.00108138
0.00105726
0.0014898
0.000730558
0.00117918
0.000997498
0.000846628
0.000895051
0.000953129
0.00107776
0.00135765
0.00102083
0.000837413
0.00102482
0.00122754
0.00108498
0.000902664
0.000866247
0.00107184
0.00099578
0.0010953
0.000955594
0.000712261
0.00111264
0.00130476
0.00115806
0.00129018
0.0009279
0.000988429
0.000864875
0.00103337
0.00106537
0.000931645
0.00095598
0.000999617
0.00148803
0.00191456
0.000960561
0.00137559
0.000913172
0.0010211
0.00134261
0.00132928
0.0012832
0.000823906
0.0012186
0.00131151
0.000822265
0.000837909
0.000957601
0.00107721
0.00102355
0.00111373
0.000935026
0.000901642
0.000906993
0.00169003
0.000768624
0.0012486
0.00142712
0.00130716
0.00119162
0.0010268
0.000999009
0.000949051
0.00124421
0.00103723
0.000964396
0.00100677
0.00102894
0.000804928
0.00118014
0.0011232
0.000980214
0.0010348
0.00136454
0.00135755
0.0010501
0.000925295
0.000869125
0.00126587
0.00163499
0.00108082
0.00110195
0.00100111
0.00116918
0.000962525
0.000951485
0.000970824
0.000897192
0.00105817
0.00135386
0.000891447
0.00109921
0.000786307
0.00102118
0.0010966
0.0013883
0.00144494
0.00123901
0.00126747
0.000916107
0.000923666
0.00100847
0.00109316
0.000881754
0.00121679
0.00132612
0.000893566
0.00136734
0.00105672
0.000825131
0.00104676
0.0012287
0.0013263
0.000943712
0.000933208
0.00127952
0.00093833
0.000948537
0.00131206
0.000997553
0.00106815
0.00115691
0.00105572
0.000974219
0.000948979
0.00105995
0.00138486
0.00120491
0.000871118
0.00104424
0.000836701
0.00119345
0.0010184
0.00102148
0.000967719
0.00101205
0.00113874
0.00120662
0.0012011
0.00116527
0.00138987
0.00101965
0.00102774
0.000994674
0.000922242
0.0010449
0.00101293
0.00139581
0.00138619
0.00105137
0.00106393
0.00112405
0.00116335
0.000967767
0.00106008
0.00102277
0.0015663
0.00131616
0.000930365
0.000851664
0.00122287
0.00085717
0.000793832
0.00110873
0.00105902
0.00103718
0.000868323
0.00100375
0.000924788
0.000843492
0.00115148
0.00100806
0.00102686
0.00128009
0.00142345
0.00095372
0.00132925
0.000825105
0.000935033
0.00103544
0.000827101
0.00145261
0.00100208
0.00114727
0.00116939
0.000919431
0.000891368
0.00108518
0.000986804
0.00114822
0.000869372
0.00121282
0.00124447
0.00108893
0.000824931
0.000986502
0.00101587
0.000865629
0.000874573
0.00130701
0.0012674
0.00118779
0.00146051
0.00113742
0.00115377
0.00111023
0.00102599
0.0010703
0.000880431
0.00086068
0.00107674
0.00079493
0.00128948
0.00111451
0.00119531
0.00131489
0.00139172
0.00107493
0.00113063
0.0010188
0.00120216
0.00107031
0.000986084
0.000952802
0.000718126
0.0013693
0.00111902
0.00109569
0.00102114
0.00110417
0.000947609
0.00104965
0.000884508
0.000980128
0.00106588
0.00108786
0.00121023
0.00122986
0.00100189
0.00100265
0.00116955
0.000922136
0.00126692
0.00131323
0.0010885
0.000745239
0.000753269
0.00125917
0.000949601
0.00142692
0.00094455
0.000970471
0.000875267
0.0015178
0.00119171
0.00124167
0.001289
0.00123248
0.00112578
0.00133705
0.000964598
0.000983528
0.00118369
0.000906586
0.0013414
0.00092879
0.000953888
0.00106919
0.000986054
0.00121594
0.00105506
0.00133043
0.000963678
0.00121354
0.00101488
0.00105285
0.000774125
0.00111087
0.00104087
0.00112982
0.000969946
0.0010251
0.00107739
0.00119105
0.000870783
0.00090139
0.00121832
0.00107317
0.00124151
0.00104545
0.0010752
0.000815736
0.000759633
0.0032472
0.00357771
0.00767355
0.00706584
0.00536342
0.00451965
0.00313344
0.00398202
0.00298956
0.00435194
0.00406827
0.00593872
0.00333499
0.00351985
0.00278657
0.00146932
0.00289218
0.00145408
0.00220065
0.00177425
0.00366866
0.00163632
0.00406317
0.00412992
0.0037278
0.00433151
0.00373282
0.00586071
0.00598665
0.00699927
0.00276881
0.00245814
0.007233
0.00653089
0.00785947
0.00160724
0.00610699
0.00155846
0.00161622
0.00241606
0.00453721
0.00430516
0.00555255
0.00362055
0.00477656
0.00369433
0.00535777
0.00312763
0.00529848
0.00156131
0.00845813
0.00610874
0.00333101
0.00273701
0.00193666
0.00318547
0.00851246
0.00837197
0.00388662
0.00212937
0.00552246
0.00328576
0.00563275
0.00285426
0.00395167
0.0034701
0.0032003
0.0039708
0.00489518
0.00244884
0.00280325
0.00270389
0.00223539
0.00928879
0.00841551
0.00412725
0.00609484
0.00250648
0.00367817
0.00516099
0.00556869
0.00496535
0.00395087
0.00640857
0.00983014
0.00481598
0.0021829
0.00992712
0.00661972
0.00379815
0.00956682
0.00731799
0.00569144
0.00447284
0.00247677
0.00700647
0.00516673
0.00222673
0.00325035
0.00465395
0.00527557
0.00857872
0.00453656
0.00315968
0.00525014
0.00662148
0.00387729
0.00145706
0.00511962
0.00513519
0.0049969
0.00734377
0.00403179
0.00166516
0.0111363
0.00618086
0.00504445
0.00511386
0.00429232
0.00866136
0.00451389
0.00675173
0.00264374
0.00174625
0.00635837
0.00534382
0.00255657
0.00352484
0.00781946
0.00421548
0.00396199
0.00167618
0.00225663
0.00776142
0.00364685
0.00352615
0.00347555
0.00755974
0.00386691
0.00411685
0.00148371
0.00265639
0.00149315
0.00203219
0.00319352
0.00575239
0.00317034
0.00552568
0.00528427
0.00275853
0.00450323
0.0077761
0.0104607
0.00568714
0.00697921
0.00351975
0.00644926
0.00385426
0.0066786
0.00484572
0.00229243
0.00281487
0.00719317
0.0082102
0.00461894
0.00467616
0.00339301
0.00532735
0.00666294
0.00381451
0.00369818
0.00236881
0.00595083
0.00364168
0.00416725
0.00350606
0.00364607
0.00497403
0.00450187
0.0045659
0.00523892
0.00480204
0.00329287
0.00269883
0.00934935
0.00473223
0.00314426
0.00603665
0.00747215
0.00426483
0.00662008
0.00323057
0.0027689
0.00689751
0.00545157
0.00272298
0.00378754
0.00957287
0.0034386
0.00754144
0.00553858
0.00592484
0.00774883
0.00410618
0.00405385
0.00362633
0.00384185
0.0017994
0.00540358
0.00614915
0.00516866
0.00480452
0.00486543
0.00684858
0.00359725
0.003218
0.00810863
0.00308259
0.00396324
0.00416996
0.00450703
0.00489667
0.00407562
0.00400672
0.00310771
0.00321071
0.00244548
0.00683507
0.00397961
0.00781105
0.00827469
0.00821414
0.00598962
0.00157672
0.00517758
0.00565217
0.00165114
0.00228187
0.00615993
0.0105428
0.00558058
0.00650767
0.00311464
0.00441678
0.00645466
0.00385459
0.00177002
0.00684439
0.00847994
0.00535847
0.00294902
0.00690128
0.00179392
0.003609
0.00562298
0.0051437
0.00543354
0.00592445
0.00466865
0.00551013
0.00272665
0.00651847
0.00156116
0.00405073
0.00621199
0.00126291
0.00575228
0.00593854
0.00234713
0.00328559
0.00320679
0.00453033
0.00292513
0.00457376
0.00359933
0.00309443
0.00390774
0.00410602
0.00782058
0.0045849
0.00499815
0.00271376
0.00250051
0.0062604
0.00127797
0.00351856
0.00291956
0.00197888
0.0036201
0.00219779
0.0029699
0.00905187
0.00460977
0.00148114
0.00488371
0.00345647
0.00471793
0.00346706
0.00811236
0.00249655
0.00261525
0.0014438
0.00353623
0.00549394
0.00174968
0.0027072
0.00362198
0.00749705
0.0014644
0.00349166
0.0040631
0.00388586
0.00611282
0.00272644
0.0050047
0.00253151
0.00170234
0.00698049
0.00365329
0.00356283
0.00414496
0.00346348
0.00666047
0.0028356
0.00347739
0.00457746
0.00278687
0.00289547
0.00414233
0.00275245
0.00429947
0.00346223
0.00324073
0.0031961
0.006815
0.00315088
0.00677602
0.00232476
0.0047724
0.00498178
0.00162577
0.00276359
0.00528971
0.00299166
0.00388503
0.00589064
0.0022184
0.006391
0.00941608
0.00641125
0.00437429
0.00268935
0.00354612
0.00369402
0.00498334
0.00470366
0.00828015
0.00602721
0.00511886
0.00276841
0.00460496
0.00582087
0.00453887
0.00281518
0.00463878
0.00326711
0.0030323
0.0104235
0.00145265
0.012677
0.00474025
0.00411502
0.00468264
0.00351723
0.0035053
0.00402648
0.00264074
0.00436128
0.00307016
0.00718392
0.00337321
0.00227342
0.00264475
0.00536703
0.0088036
0.00274136
0.00618951
0.00606232
0.00511772
0.00457365
0.00234845
0.00333962
0.00302814
0.00409322
0.00643785
0.00516455
0.00293447
0.0013758
0.00580461
0.00129448
0.00354929
0.00388694