/*--------------------------------*- C++ -*----------------------------------*\
| =========                 |                                                 |
| \\      /  F ield         | OpenFOAM: The Open Source CFD Toolbox           |
|  \\    /   O peration     | Version:  2212                                  |
|   \\  /    A nd           | Website:  www.openfoam.com                      |
|    \\/     M anipulation  |                                                 |
\*---------------------------------------------------------------------------*/
FoamFile
{
    version     2.0;
    format      ascii;
    arch        "LSB;label=32;scalar=64";
    class       volScalarField;
    location    "10";
    object      p;
}
// * * * * * * * * * * * * * * * * * * * * * * * * * * * * * * * * * * * * * //

dimensions      [0 2 -2 0 0 0 0];

internalField   nonuniform List<scalar> 
76405
(
-116.457
-139.681
-112.614
-124.315
-168.133
-157.094
-183.129
-94.1198
-116.313
-101.169
-128.912
-111.609
-108.475
-87.4964
-82.1629
-182.738
-119.768
-182.291
-30.3382
-40.9789
-135.154
-98.4437
-148.885
-79.0222
-160.63
-83.3268
-61.6905
-89.42
-102.824
-103.394
-152.503
-177.058
-94.53
-63.5307
-138.181
-130.094
-111.329
-23.4227
-23.4188
-115.316
-109.837
-102.877
-50.1502
-66.5015
-121.825
-228.235
-256.741
-224.336
-151.003
-160.244
-189.823
-210.807
-142.982
-153.506
-127.867
-128.217
-72.0307
-55.273
-120.938
-95.961
-61.1529
-100.546
-128.436
-177.356
-147.072
-142.292
-106.197
-137.352
-110.956
-129.413
-134.562
-149.924
-80.4602
-115.003
-52.5443
-119.673
-124.08
-162.061
-154.558
-74.8693
-197.052
-199.661
-176.852
-134.303
-141.245
-99.4087
-114.109
-77.7708
-95.8684
-99.004
-57.2949
-52.3994
-217.202
-41.3643
-17.3867
-130.749
-129.171
-136.67
-120.056
-65.1758
-71.0911
-126.123
-85.5273
-2.76087
-81.3622
-101.312
-108.064
-177.092
-79.1956
-100.47
-101.007
-110.74
-56.7344
-213.478
-128.477
-117.595
-95.8896
-106.28
-124.602
-74.9313
-155.084
-136.759
-113.925
-124.19
-80.2546
-95.5191
-130.051
-255.849
-59.6256
-72.085
-221.298
-107.867
-10.5015
-59.3618
-114.258
-146.265
-106.278
-157.353
-109.955
-122.121
-183.549
-24.7185
-183.912
-18.363
-217.975
-265.21
-115.805
-52.1541
-63.8111
-19.7422
-127.587
-44.3984
-46.9883
-153.478
-144.282
-121.208
-69.0297
-97.0795
-59.9637
-172.34
-140.707
-104.384
-201.096
-58.1146
-125.899
-121.503
-114.009
-99.9802
-65.227
-111.525
-190.181
-62.9071
-74.6502
-106.233
-145.189
-136.033
-174.153
-167.428
-92.6854
-61.5922
-59.5026
-83.3574
-179.175
-171.448
-54.5257
-127.217
-70.1239
-114.869
-72.2238
-83.5142
-68.932
-214.69
-133.279
-122.633
-146.151
-129.171
-73.4008
-64.352
-122.31
-141.393
-83.9598
-88.2018
-190.067
-95.0643
-113.405
-137.813
-142.735
-92.6402
-56.5598
-177.852
-75.6298
-69.6802
-70.6299
-53.0417
-130.135
-133.086
-111.933
-137.755
-118.001
-76.8154
-178.343
-89.7553
-224.081
-216.31
-148.115
-84.8902
-123.581
-71.0649
-99.1836
-162.995
-150.25
-133.165
-124.93
-40.5093
-97.5888
-92.2041
-140.466
-131.624
-157.469
-174.686
-134.369
-55.8896
-141.331
-61.6751
-224.662
-87.9445
-127.559
-102.661
-195.338
-100.848
-143.39
-80.2764
-146.919
-115.885
-104.451
-197.532
-174.962
-119.839
-231.332
-246.675
-128.394
-207.725
-165.324
-267.323
-95.9913
-20.1238
-212.065
-145.529
-132.297
-161.406
-124.473
-83.9768
-114.594
-120.31
-123.578
-121.206
-100.132
-94.5251
-51.2173
-85.2849
-231.929
-145.42
-135.215
-111.356
-18.4184
-124.314
-123.362
-24.0134
-100.094
-130.336
-133.864
-31.1977
-114.932
-174.543
-159.024
-80.5189
-75.6219
-147.939
-42.2134
-153.551
-130.232
-172.289
-80.4913
-8.74662
-18.9336
-128.768
-131.502
-61.3145
-173.692
-134.81
-79.5083
-64.1778
-61.855
-118.148
-13.5195
-78.3472
-127.99
-102.056
-109.618
-143.226
-54.5593
-188.226
-109.171
-117.395
-136.862
-90.8182
-74.3381
-151.625
-153.248
-127.831
-74.8521
-83.021
-93.2954
-95.2437
-105.545
-74.5992
-94.3214
-123.346
-108.549
-101.22
-160.207
-130.705
-63.9591
-148.666
-115.143
-209.146
-118.499
-44.0271
-42.4977
-52.4933
-69.6768
-99.9763
-138.232
-172.482
-121.22
-122.554
-152.787
-89.2111
-104.015
-32.2949
-138.123
-70.7529
-98.0046
-143.023
-98.6238
-123.753
-165.253
-120.944
-179.144
-77.7059
-94.9506
-278.936
-105.466
-105.712
-111.966
-119.614
-162.666
-88.3018
-107.02
-53.7902
-155.459
-122.664
-84.0343
-80.6528
-35.623
-106.204
-72.0966
-139.468
-145.106
-156.903
-32.8292
-97.8039
-132.427
-121.553
-127.492
-60.4272
-122.68
-22.0346
-75.2221
-21.5916
-86.0077
-79.9925
-113.111
-86.1529
-54.5349
-137.247
-128.488
-125.641
-137.692
-97.9228
-147.064
-115.398
-41.6132
-45.8623
-58.4063
-23.7138
-130.306
-138.148
-104.852
-106.593
-54.5188
-122.635
-88.0393
-180.596
-20.2854
-12.592
-136.412
-25.8821
-85.7938
-189.394
-135.269
-67.1059
-166.566
-83.1314
-123.465
-139.438
-66.6735
-82.2864
-189.867
-74.8993
-118.818
-77.4641
-89.0428
-155.619
-143.57
-83.1128
-107.172
-144.906
-70.3499
-173.815
-124.066
-123.361
-140.405
-139.384
-66.9781
-61.2873
-190.866
-122.126
-178.535
-26.6604
-163.776
-166.328
-98.2713
-264.851
-104.266
-113.277
-131.13
-81.2234
-122.798
-136.49
-59.2753
-81.5522
-65.9363
-85.1371
-107.33
-119.953
-125.491
-132.687
-120.47
-76.9714
-100.013
-107.754
0.0450199
-171.355
-90.8637
-145.71
-97.9316
-131.592
-56.8658
-114.859
-170.649
-118.023
-138.6
-23.6007
-136.825
-153.041
-116.642
-169.523
-44.2027
-53.9224
-123.092
-115.231
-26.0032
-163.559
-20.9147
-20.8142
-10.6593
-85.0098
-85.7405
-15.596
-111.77
-114.768
-168.79
-170.207
-70.07
-132.291
-157.466
-71.3599
-117.415
-122.246
-229.404
-83.2951
-104.265
-147.918
-11.7368
-117.942
-192.828
-100.314
-152.438
-135.413
-102.039
-109.429
-103.532
-58.0105
-85.2664
-85.6757
-82.3734
-76.9573
-191.099
-156.79
-145.261
-84.7892
-152.86
-76.4593
-55.0002
-100.245
-182.501
-102.291
-23.4561
-68.9835
-64.8443
-13.6411
-172.492
-44.6839
-44.769
-57.2187
-43.6493
-150.582
-115.679
-141.087
-95.933
-76.8161
-49.9812
-251.128
-136.162
-194.298
-64.4648
-118.395
-181.525
-178.844
-79.455
-49.2205
-117.802
-35.2742
-127.907
-66.5931
-118.142
-105.484
-97.6695
-111.359
-56.1653
-178.187
-138.675
-116.658
-114.714
-24.0903
-25.4079
-85.5397
-118.78
-59.4103
-75.2717
-186.217
-146.466
-208.057
-134.598
-125.794
-118.578
-150.367
-133.727
-110.599
-123.578
-105.193
-100.372
-72.542
-134.693
-136.785
-176.63
-159.998
-149.817
-70.3502
-68.8778
-66.5229
-142.532
-159.85
-69.0559
-96.9057
-122.451
-77.1621
-107.411
-18.3862
-15.1972
-60.9933
-74.389
-138.279
-180.865
-128.784
-155.818
-53.5041
-105.875
-143.701
-24.0697
-177.412
-117.506
-112.665
-127.049
-112.553
-117.319
-202.18
-100.983
-43.1329
-6.21747
-244.24
-161.047
-131.599
-41.0691
-137.901
-131.293
-91.7742
-90.1902
-116.976
-129.401
-13.7406
-135.568
-99.5098
-95.8925
-117.059
-76.6663
-104.662
-86.1353
-66.3172
-61.6177
-106.983
-132.467
-86.8506
-107.12
-98.5999
-243.482
-82.0459
-185.87
-117.844
-47.4342
-106.637
-111.351
-214.725
-125.144
-124.905
-149.554
-85.5737
-104.838
-146.256
-113.825
-107.723
-60.9448
-124.655
-100.099
-85.5913
-82.5045
-26.2718
-96.3947
-127.099
-22.191
-23.3776
-129.265
-154.206
-160.552
-115.919
-129.083
-143.735
-132.963
-50.1168
-182.815
-57.187
-129.667
-90.6818
-117.049
-75.8083
-120.959
-138.793
-95.9576
-11.6187
-125.533
-150.391
-133.737
-153.698
-89.2209
-102.056
-93.3902
-87.3727
-93.8679
-114.731
-125.302
-13.2852
-163.422
-121.497
-117.711
-139.281
-72.1441
-60.2176
-81.3066
-81.5397
-154.547
-141.432
-147.726
-190.88
-102.153
-67.6368
-69.4041
-132.944
-131.281
-135.061
-111.13
-254.521
-144.78
-112.669
-137.715
-140.403
-159.456
-80.5932
-116.398
-91.8285
-112.238
-135.021
-7.98742
-196.774
-83.7671
-66.3747
-220.75
-53.1698
-120.269
-172.777
-134.64
-133.398
-181.339
-17.5863
-134.827
-105.376
-75.937
-126.631
-134.207
-189.045
-121.043
-157.94
-204.911
-189.159
-118.14
-103.731
-149.108
-77.6388
-145.099
-120.702
-106.272
-122.99
-132.155
-160.439
-144.614
-126.435
-139.227
-140.537
-175.434
-162.411
-139.927
-134.928
-149.176
-92.0445
-118.086
-5.82465
-140.508
-117.905
-44.8765
-44.6009
-36.3097
-105.33
-107.388
-105.87
-74.1034
-103.311
-80.7344
-101.486
-87.3664
-54.4452
-78.823
-158.057
-97.935
-147.448
-21.6656
-21.6315
-109.344
-102.463
-98.7156
-89.1674
-90.1602
-88.8711
-88.0528
-140.22
-73.7819
-154.901
-60.3048
-51.7813
-104.885
-15.4664
-87.3378
-14.1775
-75.8279
-110.654
-145.145
-206.46
-87.7589
-76.8025
-82.5826
-73.2396
-113.177
-147.14
-18.9859
-17.3987
-11.6546
-123.867
-99.5437
-89.0541
-64.1096
-145.484
-132.112
-142.567
-14.7069
-31.1281
-169.663
-111.421
-15.5033
-15.1522
-137.293
-128.518
-126.628
-53.5895
-172.634
-170.133
-74.3162
-95.4807
-101.303
-103.806
-262.945
-61.2141
-90.1807
-79.0991
-99.3854
-111.848
-205.907
-126.509
-68.4393
-120.022
-67.4659
-88.324
-151.835
-5.19872
-105.306
-70.4823
-105.031
-109.328
-143.765
-170.958
-125.792
-152.879
-147.402
-60.044
-71.2255
-126.354
-128.627
-78.29
-77.7729
-82.3982
-100.261
-124.988
-55.6861
-106.499
-109.586
-66.4411
-67.9825
-55.6654
-64.6804
-47.6075
-66.4629
-43.8228
-112.749
-168.567
-48.9329
-156.513
-155.148
-116.24
-133.068
-93.5219
-114.894
-128.577
-119.127
-106.568
-200.145
-90.5455
-81.4732
-143.113
-53.7949
-141.932
-93.6384
-131.62
-118.856
-86.5677
-123.643
-132.096
-27.7462
-138.093
-130.165
-134.318
-157.383
-27.059
-29.5846
-145.791
-13.834
-71.8862
-71.2961
-53.5713
-67.7969
-136.918
-118.277
-100.631
-84.4003
-98.683
-114.857
-114.889
-132.408
-172.007
-45.2026
-86.7976
-125.106
-140.008
-53.2347
-110.368
-22.5664
-114.234
-140.802
-47.2659
-66.8781
-107.998
-19.9303
-111.812
-180.149
-123.342
-148.425
-44.6661
-280.503
-203.195
-196.549
-108.425
-102.856
-106.981
-108.743
-120.32
-63.5927
-154.658
-65.3308
-133.033
-124.818
-151.481
-133.239
-81.7743
-75.6097
-280.988
-146.134
-129.276
-81.6197
-169.497
-138.899
-139.36
-71.0284
-69.9717
-103.904
-124.314
-134.219
-44.7856
-67.4696
-88.579
-79.2985
-81.5481
-76.2369
-72.4685
-29.4995
-96.9244
-50.0902
-142.783
-51.1199
-166.258
-15.8369
-10.9444
-93.6523
-84.7901
-80.4907
-140.988
-7.07762
-82.2725
-100.158
-97.7102
-132.906
-41.1442
-14.877
-105.054
-154.377
-97.8589
-77.0803
-127.078
-20.7045
-90.7879
-79.6882
-142.919
-110.405
-146.048
-139.874
-147.444
-47.0517
-214.094
-262.612
-239.702
-34.407
-180.791
-98.2852
-137.355
-111.489
-188.398
-204.418
-224.061
-130.152
-167.541
-88.5778
-85.7775
-76.945
-89.0256
-120.339
-88.4716
-140.711
-79.8858
-95.1179
-89.6779
-74.539
-87.0723
-160.786
-96.4505
-107.41
-103.68
-61.4679
-139.798
-82.9794
-180.049
-190.338
-273.124
-265.837
-35.1165
-73.7807
-127.425
-58.2356
-111.21
-79.0439
-158.138
-59.8405
-136.797
-145.025
-91.003
-84.0652
-170.868
-113.434
-110.303
-14.4533
-98.8366
-145.852
-165.386
-48.7175
-104.999
-113.235
-122.792
-52.2117
-96.818
-66.9486
-55.0295
-79.537
-29.6832
-108.7
-117.334
-113.879
-129.865
-134.817
-84.7147
-85.9812
-114.173
-9.2577
-157.546
-219.61
-188.913
-150.507
-83.428
-71.5144
-15.7507
-93.7571
-81.0443
-51.5825
-117.28
-54.3221
-50.0231
-50.7064
-70.9117
-62.0534
-15.3934
-76.4585
-76.9053
-84.1295
-26.7391
-132.406
-34.1574
-27.2323
-88.3102
-208.169
-234.903
-37.4943
-131.56
-163.233
-117.51
-72.8301
-87.7713
-194.164
-39.7776
-108.392
-42.1478
-20.7955
-11.3452
-18.8731
-22.8479
-62.346
-193.75
-62.8512
-152.698
-70.9731
-279.757
-61.5565
-62.7277
-78.4154
-59.8559
-134.27
-14.7212
-77.6465
-254.975
-123.524
-3.76005
-7.87552
-62.2844
-133.119
-119.386
-102.188
-109.331
-106.524
-67.3973
-49.6105
-186.684
-76.5595
-152.499
-130.348
-171.345
-72.5705
-74.6842
-19.0635
-166.215
-184.185
-190.25
-149.665
-37.9566
-94.1051
-98.7092
-119.871
-146.288
-108.783
-42.9548
-46.2356
-57.6854
-114.753
-91.327
-77.1002
-112.855
-95.9206
-179.231
-82.7928
-94.5804
-104.149
-36.1757
-14.2102
-184.647
-83.3565
-71.461
-51.6184
-97.036
-16.4917
-135.549
-57.5476
-95.6749
-249.49
-137.29
-160.036
-277.108
-17.2887
-160.988
-130.325
-124.658
-174.359
-75.3825
-119.279
-131.36
-127.765
-153.89
-106.263
-35.6575
-149.027
-159.084
-27.4812
-54.2561
-79.6688
-127.815
-123.719
-64.9479
-113.191
-204.617
-66.8634
-225.689
-72.1834
-147.022
-108.361
-102.396
-85.2225
-133.582
-157.065
-126.989
-82.1206
-155.365
-71.9724
-79.5997
-129.205
-99.3892
-16.9263
-106.483
-108.652
-112.456
-47.5513
-71.824
-83.5053
-7.63682
-44.1545
-101.768
-113.47
-82.9586
-114.667
-142.764
-14.0439
-132.566
-15.3331
-108.924
-114.632
-131.115
-135.762
-46.2761
-73.791
-110.254
-84.2671
-91.5127
-98.1307
-256.891
-168.436
-153.723
-158.443
-221.087
-192.098
-144.023
-141.914
-147.314
-89.48
-128.302
-95.8486
-150.484
-79.4875
-57.2409
-127.422
-152.192
-193.305
-169.401
-114.125
-111.306
-9.09602
-90.442
-23.2866
-24.6868
-116.975
-100.307
-24.7693
-26.8915
-130.581
-211.872
-34.6387
-121.107
-130.115
-15.6948
-201.426
-127.997
-142.74
-84.2558
-66.6419
-34.0675
-136.936
-94.3812
-127.137
-70.5243
-17.6251
-18.7128
-164.033
-105.318
-88.5187
-197.502
-118.554
-146.565
-134.69
-92.8165
-91.0182
-157.235
-168.353
-146.617
-101.72
-90.6783
-74.0812
-82.0207
-90.6414
-215.709
-206.217
-149.589
-138.408
-13.8246
-84.0634
-146.069
-97.8051
-91.0061
-169.972
-235.932
-126.093
-120.005
-75.795
-165.559
-163.563
-104.697
-18.4422
-108.875
-92.2766
-75.5258
-125.056
-220.143
-104.373
-126.156
-105.27
-134.335
-90.2135
-79.7801
-96.8708
-124.486
-92.6496
-140.915
-94.5225
-60.7182
-63.1369
-15.3548
-43.9883
-57.3601
-45.4779
-179.493
-150.29
-106.979
-96.7982
-106.741
-144.822
-59.9408
-88.0537
-89.1925
-194.242
-191.819
-18.4193
-47.8189
-58.1758
-131.394
-93.8586
-77.2657
-123.357
-115.487
-116.855
-88.5355
-87.0873
-24.7184
-103.957
-47.2704
-81.5393
-83.2464
-164.907
-130.255
-127.58
-145.839
-16.1684
-28.7969
-132.272
-141.233
-103.56
-80.3601
-205.193
-141.384
-107.775
-157.4
-28.2202
-139.421
-113.892
-14.906
-67.3916
-118.145
-154.481
-103.318
-99.44
-121.985
-140.293
-22.7745
-27.8144
-77.8417
-19.8689
-75.2446
-186.846
-196.086
-26.0165
-119.193
-66.8992
-19.0677
-92.1675
-70.8177
-200.204
-132.758
-246.23
-250.155
-127.906
-125.299
-131.611
-119.459
-150.449
-136.77
-76.9346
-20.646
-125.892
-205.929
-233.531
-31.7652
-135.037
-12.9352
-64.8947
-141.371
-155.483
-127.323
-129.601
-127.071
-56.5956
-133.998
-69.7911
-71.3065
-19.7521
-118.118
-86.9351
-88.9936
-95.6505
-85.4002
-101.598
-73.0994
-82.8315
-46.9305
-110.811
-129.124
-145.801
-132.286
-112.909
-133.695
-10.8826
-136.077
-127.516
-206.826
-110.639
-107.338
-167.539
-133.575
-124.681
-128.58
-134.464
-76.1145
-96.1927
-117.052
-186.961
-110.701
-209.634
-59.4936
-57.6774
-154.794
-182.634
-89.7989
-100.114
-59.435
-67.6521
-59.1767
-55.797
-162.386
-106.348
-80.8492
-132.649
-81.1715
-55.7162
-185.16
-118.477
-210.728
-48.9804
-194.325
-100.716
-96.9517
-128.321
-144.023
-101.391
-94.834
-124.904
-43.8294
-61.0794
-70.0592
-111.682
-128.447
-83.8477
-112.488
-113.393
-98.4697
-115.114
-109.32
-116.586
-17.2104
-24.7936
-83.2261
-76.6063
-153.683
-91.96
-88.6999
-95.2001
-111.646
-135.911
-132.862
-144.565
-194.251
-166.297
-203.202
-100.544
-103.312
-101.304
-155.787
-107.515
-26.1593
-57.3801
-196.6
-159.09
-165.004
-73.0457
-176.336
-104.263
-67.8227
-230.924
-131.069
-128.38
-146.471
-156.728
-106.268
-66.4959
-131.151
-56.6953
-140.664
-143.116
-144.033
-132.88
-123.284
-98.5306
-104.741
-167.174
-151.984
-135.345
-117.047
-136.303
-50.0644
-128.937
-205.77
-190.763
-12.6238
-79.1551
-155.392
-136.843
-80.3352
-100.148
-183.078
-190.162
-112.928
-90.301
-92.4317
-48.3462
-127.904
-125.834
-90.6223
-133.719
-50.5759
-48.9101
-80.3626
-105.726
-84.2589
-154.941
-103.706
-134.483
-102.265
-100.792
-110.012
-107.028
-108.256
-94.3623
-17.3943
-143.786
-160.034
-126.862
-177.182
-138.453
-122.487
-114.542
-136.144
-135.239
-163.133
-120.235
-150.196
-150.889
-89.6084
-74.5205
-177.575
-188.489
-155.275
-73.0366
-142.746
-200.415
-86.0869
-61.2453
-63.8425
-101.702
-178.606
-104.017
-129.076
-149.452
-150.686
-174.549
-154.904
-184.786
-187.164
-92.9473
-99.5944
-121.19
-95.3609
-115.241
-184.06
-148.986
-110.616
-132.241
-67.4396
-130.592
-138.489
-81.1899
-76.4889
-86.9755
-110.606
-231.842
-214.451
-72.319
-27.8719
-165.321
-51.197
-84.5292
-88.5785
-48.7358
-87.8211
-83.3198
-164.022
-150.937
-141.83
-150.008
-120.743
-110.998
-111.002
-88.0256
-138.875
-141.712
-122.443
-12.264
-126.623
-170.452
-177.778
-91.247
-108.212
-52.9027
-179.617
-156.883
-107.044
-127.822
-95.1876
-15.6838
-120.655
-89.0289
-134.298
-114.943
-107.775
-109.737
-104.413
-112.268
-117.145
-79.2498
-162.857
-112.816
-94.938
-128.193
-77.8416
-82.1143
-72.4743
-128.766
-93.5773
-92.889
-156.361
-102.542
-18.4891
-14.2979
-25.8786
-34.8098
-116.923
-15.0605
-50.9488
-128.357
-110.98
-147.266
-97.046
-125.723
-83.5482
-81.171
-225.66
-77.4119
-154.515
-62.2144
-136.873
-101.156
-218.946
-39.865
-80.0323
-137.933
-113.934
-167.354
-50.297
-157.254
-143.703
-134.321
-42.2033
-179.145
-153.642
-103.647
-129.898
-96.3648
-138.222
-160.403
-145.524
-167.862
-76.7867
-158.869
-118.953
-122.076
-66.4024
-130.132
-230.735
-135.064
-122.934
-77.0729
-105.679
-112.862
-111.499
-114.399
-107.333
-47.5442
-75.6352
-81.4201
-79.3877
-98.5686
-70.6229
-78.673
-59.635
-138.942
-113.051
-136.604
-121.404
-188.638
-175.674
-95.268
-100.269
-67.1771
-131.502
-88.1722
-59.5849
-128.609
-89.3131
-102.434
-207.86
-133.884
-186.697
-68.3243
-94.1966
-88.9413
-119.877
-120.88
-120.651
-95.0956
-101.838
-83.5165
-122.085
-89.7127
-88.0976
-123.603
-137.66
-188.947
-118.807
-130.909
-87.8934
-116.962
-177.121
-99.847
-126.789
-115.28
-101.156
-48.2579
-106.495
-71.2675
-110.914
-130.214
-83.3592
-127.935
-91.5064
-53.4685
-54.9678
-45.1407
-40.787
-156.864
-126.244
-91.7346
-116.728
-122.951
-165.499
-57.0836
-85.4815
-102.415
-152.582
-123.456
-66.2738
-99.0605
-106.929
-120.496
-100.718
-148.064
-134.662
-100.749
-129.473
-66.575
-63.0863
-106.984
-147.181
-132.247
-94.5495
-103.1
-110.211
-24.998
-122.536
-106.624
-126.325
-134.825
-139.298
-184.292
-154.763
-153.329
-109.979
-67.372
-89.0125
-56.705
-83.5326
-227.998
-68.0069
-77.206
-181.841
-60.6591
-149.314
-49.3064
-112.998
-104.327
-105.937
-107.989
-90.0353
-185.523
-124.301
-81.7989
-134.906
-115.403
-209.894
-19.593
-149.054
-65.1653
-134.897
-130.052
-23.6727
-64.2968
-92.3079
-176.553
-71.5446
-121.582
-132.366
-144.38
-125.426
-167.051
-131.414
-57.4047
-206.947
-62.0689
-110.344
-118.16
-170.842
-59.4029
-60.6098
-13.17
-36.7633
-132.233
-194.582
-100.24
-111.364
-91
-229.82
-259.644
-74.1176
-192.292
-23.2878
-56.39
-138.528
-71.1189
-71.4162
-99.1494
-7.44931
-191.616
-192.732
-46.6746
-155.012
-50.7812
-139.829
-100.804
-123.748
-100.123
-176.773
-215.26
-43.0772
-46.8545
-135.062
-131.021
-191.262
-90.088
-18.0368
-95.1857
-113.12
-76.6941
-70.5162
-136.275
-185
-103.562
-136.685
-168.636
-35.9526
-60.5693
-85.8651
-83.3379
-119.943
-108.106
-139.552
-56.6413
-183.533
-109.574
-121.602
-90.7948
-117.748
-178.729
-41.0238
-72.1443
-140.412
-141.561
-43.7021
-156.061
-78.9465
-141.667
-104.737
-119.573
-109.416
-132.846
-63.5097
-67.6315
-105.607
-177.552
-127.659
-93.1808
-43.3029
-31.9735
-160.323
-163.842
-89.0152
-147.628
-87.6839
-104.081
-90.8592
-131.005
-92.9725
-69.4769
-63.9488
-272.804
-56.1324
-94.1659
-149.622
-138.27
-125.482
-111.135
-101.376
-85.9063
-208.637
-156.777
-102.828
-90.2721
-168.86
-96.96
-99.6416
-105.08
-51.9556
-76.0221
-4.84717
-81.0764
-150.447
-115.114
-96.124
-139.189
-136.107
-93.0352
-96.0251
-133.889
-104.981
-130.447
-70.5951
-83.7955
-137.615
-100.117
-91.8478
-95.8332
-96.3275
-142.253
-120.925
-131.283
-25.0994
-102.141
-56.7432
-68.7513
-145.703
-149.35
-101.896
-171.952
-155.073
-149.518
-144.549
-128.527
-91.1163
-139.096
-99.3947
-72.3719
-34.7786
-86.0721
-92.0414
-67.2834
-75.8872
-82.9969
-139.572
-166.689
-40.4318
-90.6929
-113.22
-123.486
-53.0065
-94.541
-88.8284
-136.621
-92.8537
-94.1155
-23.4643
-119.256
-75.6534
-75.9148
-94.931
-105.648
-107.905
-29.7426
-24.5006
-116.708
-103.525
-120.093
-68.5377
-72.7543
-27.0722
-122.247
-131.34
-79.5259
-43.7793
-99.8391
-85.8229
-107.394
-175.752
-144.35
-64.1337
-175
-113.786
-95.4931
-126.413
-99.8283
-54.4246
-66.1169
-96.5028
-119.881
-26.2552
-147.707
-183.167
-92.0501
-85.9622
-91.9187
-202.136
-23.6111
-93.4323
-140.854
-87.3036
-99.3512
-101.317
-81.4435
-106.848
-109.913
-98.8796
-85.8704
-83.6909
-77.4231
-75.0662
-93.0747
-80.6248
-72.5344
-97.0548
-99.5233
-110.695
-97.0612
-113.18
-132.482
-112.261
-124.263
-161.013
-154.097
-183.266
-95.2809
-116.444
-103.124
-125.206
-110.957
-107.908
-90.4675
-85.2186
-182.733
-120.338
-182.289
-30.4987
-41.0258
-131.573
-99.8129
-141.951
-83.1153
-160.522
-83.5073
-64.6111
-90.5136
-103.12
-103.282
-152.123
-160.807
-95.7994
-63.678
-137.697
-123.813
-109.16
-22.9636
-23.3397
-112.462
-109.775
-104.55
-53.2733
-64.2318
-122.152
-227.661
-255.299
-223.892
-147.784
-160.218
-189.284
-209.942
-143.14
-152.073
-127.521
-127.48
-72.2171
-56.7314
-124.774
-99.9552
-58.5362
-96.4086
-127.672
-176.3
-143.154
-141.404
-107.521
-138.761
-112.112
-129.174
-132.653
-149.337
-81.1663
-114.266
-51.7921
-123.522
-123.704
-155.745
-150.427
-74.559
-196.778
-199.771
-176.908
-132.18
-130.98
-96.3362
-114.669
-75.9416
-96.1074
-99.1492
-58.033
-53.8099
-217.001
-45.4016
-16.7914
-126.248
-123.859
-128.403
-120.339
-67.0885
-72.4411
-123.758
-85.0671
-2.91247
-81.3096
-106.035
-108.024
-177.096
-80.9714
-98.9355
-103.438
-114.762
-56.709
-194.69
-128.676
-118.432
-93.9683
-104.827
-117.806
-79.1759
-154.174
-137.426
-113.809
-118.509
-80.5883
-98.1537
-128.485
-254.37
-61.4406
-74.0048
-220.637
-107.736
-10.9204
-64.136
-114.531
-143.816
-106.881
-157.333
-110.644
-122.378
-183.545
-24.9234
-183.909
-18.3063
-217.448
-264.007
-116.896
-53.608
-64.339
-19.3134
-127.894
-46.3126
-48.679
-152.863
-143.837
-121.747
-69.9094
-98.2818
-60.5781
-171.281
-139.267
-103.877
-201.619
-61.5436
-125.9
-121.872
-111.565
-99.4632
-66.4327
-109.291
-185.253
-63.1328
-76.066
-105.728
-139.006
-135.503
-169.045
-163.947
-95.3526
-62.9082
-60.0886
-84.4031
-178.998
-171.175
-54.7148
-121.233
-68.205
-108.291
-73.061
-83.3713
-71.7572
-213.246
-130.629
-123.253
-145.974
-129.509
-70.7424
-63.1327
-120.137
-141.646
-83.3155
-91.2632
-189.182
-95.2408
-111.828
-133.938
-135.59
-92.6091
-57.6249
-178.017
-76.7343
-67.3251
-69.0147
-56.3944
-130.794
-133.086
-112.493
-137.305
-117.724
-77.2989
-176.319
-90.8138
-223.269
-215.901
-145.836
-84.5945
-119.898
-69.7897
-100.622
-162.562
-149.626
-133.866
-120.515
-40.6186
-97.0627
-94.6282
-129.893
-131.198
-152.344
-173.934
-138.58
-56.9299
-137.919
-60.1846
-223.796
-85.3964
-127.19
-104.564
-194.346
-98.435
-143.41
-80.8774
-145.798
-115.896
-105.59
-195.305
-174.16
-116.169
-230.612
-246.355
-128.288
-207.235
-165.303
-266.651
-97.227
-20.1316
-209.45
-146.604
-127.201
-154.657
-125.597
-84.8527
-116.763
-113.326
-123.642
-121.733
-100.438
-96.8037
-53.7508
-84.2463
-231.441
-143.977
-135.156
-107.247
-18.4163
-124.265
-123.592
-24.0181
-100.803
-130.752
-134.014
-34.0563
-116.102
-174.478
-158.644
-80.3834
-76.4172
-148.803
-42.5938
-153.296
-130.259
-172.277
-84.0141
-8.8997
-18.3221
-129.44
-131.331
-64.5745
-173.689
-134.699
-80.0665
-64.2274
-61.5596
-117.612
-13.105
-78.2524
-127.116
-106.102
-98.6879
-134.348
-56.7281
-187.866
-113.22
-118.027
-136.504
-93.1837
-73.5752
-150.017
-153.085
-128.482
-81.3044
-86.1068
-93.9573
-95.2885
-109.36
-73.7456
-96.187
-119.426
-107.581
-98.4824
-160.123
-130.477
-64.7739
-148.884
-115.379
-208.559
-115.62
-45.7582
-44.4528
-53.1853
-71.8585
-100.938
-138.054
-172.373
-117.997
-116.568
-154.633
-88.0063
-102.117
-31.6838
-134.973
-70.0833
-98.4089
-142.83
-98.1089
-123.111
-164.584
-122.099
-179.147
-79.4124
-95.8703
-276.735
-99.9637
-106.103
-110.773
-119.935
-159.112
-92.2681
-107.42
-53.1627
-153.085
-122.868
-82.8871
-80.1446
-34.8776
-108.877
-72.7314
-139.354
-143.355
-147.953
-32.7586
-97.425
-134.446
-118.029
-127.414
-60.2533
-122.145
-22.0111
-77.2221
-21.5898
-86.687
-78.9468
-111.763
-84.464
-56.2438
-137.02
-129.131
-125.785
-137.721
-96.4442
-141.376
-110.241
-42.5438
-48.0548
-58.2401
-23.6725
-130.058
-137.944
-103.488
-104.01
-55.5368
-123.42
-89.3907
-180.46
-20.1734
-12.8609
-125.855
-25.7757
-84.6374
-189.866
-134.818
-66.2889
-166.11
-82.4863
-123.99
-138.904
-65.9042
-81.7871
-188.975
-80.6314
-116.1
-79.6036
-87.7331
-155.233
-139.201
-79.3557
-107.265
-137.08
-73.0333
-172.681
-122.241
-123.253
-138.991
-139.325
-67.7719
-63.168
-185.869
-112.441
-178.02
-26.3156
-159.833
-166.034
-98.1962
-263.885
-105.141
-112.168
-130.444
-83.8936
-122.184
-134.652
-59.2528
-78.037
-67.6483
-86.8466
-106.842
-115.703
-123.585
-131.764
-121.157
-81.768
-98.5379
-106.935
-0.454259
-164.998
-90.4171
-144.88
-97.0763
-131.357
-57.3615
-115.69
-170.332
-112.003
-134.525
-23.6106
-135.949
-153.13
-109.826
-169.344
-46.4302
-54.6774
-123.254
-116.08
-26.2042
-159.346
-20.9125
-20.784
-10.6339
-85.3406
-86.5533
-15.4903
-110.319
-116.254
-162.493
-164.297
-72.3223
-133.793
-151.886
-70.768
-113.499
-123.937
-228.982
-88.2287
-102.938
-145.718
-12.3407
-113.761
-192.578
-100.049
-142.595
-114.115
-103.224
-111.245
-104.59
-59.8615
-84.4583
-85.8721
-84.0753
-78.4192
-191.218
-153.027
-144
-84.5118
-151.216
-77.5135
-55.0188
-94.4805
-183.875
-103.262
-23.6425
-69.0039
-64.8458
-13.6575
-172.034
-47.7973
-47.0055
-57.1166
-46.98
-146.96
-115.01
-135.035
-95.9144
-78.9625
-51.0417
-250.577
-126.672
-195.117
-65.4077
-116.633
-181.525
-178.841
-81.0159
-49.2567
-115.981
-35.2764
-127.88
-68.1441
-118.396
-106.224
-97.3933
-111.063
-57.6458
-177.723
-125.541
-117.388
-115.259
-24.0903
-25.6442
-86.1553
-118.485
-60.8419
-77.3573
-185.726
-147.88
-207.595
-134.301
-121.315
-117.707
-149.53
-130.154
-111.131
-122.014
-107.544
-100.635
-72.3239
-134.375
-135.607
-178.035
-153.266
-146.838
-74.7271
-70.6932
-68.5308
-139.294
-159.703
-69.5076
-99.9437
-119.088
-76.7703
-105.352
-18.2283
-14.966
-61.0831
-74.2777
-137.128
-180.593
-127.747
-155.671
-53.5476
-106.078
-143.324
-24.076
-176.591
-117.086
-110.793
-122.725
-111.199
-114.992
-201.907
-101.926
-43.2466
-6.51316
-243.59
-160.482
-132.354
-40.4043
-136.611
-131.876
-89.523
-91.4583
-118.598
-129.566
-13.7607
-134.256
-97.938
-96.0461
-113.588
-76.971
-102.827
-86.0099
-67.6424
-63.6383
-107.165
-128.795
-86.8316
-102.472
-97.9367
-243.008
-83.1743
-185.767
-121.642
-48.6625
-109.743
-112.588
-213.557
-114.732
-122.085
-141.331
-85.3634
-105.306
-139.645
-112.127
-107.414
-57.8261
-126.407
-98.5042
-87.9625
-83.3924
-26.2846
-97.5225
-126.252
-22.1871
-23.3733
-128.5
-158.714
-162.632
-118.176
-128.851
-142.342
-132.585
-54.3454
-182.813
-58.9941
-127.207
-90.2881
-117.06
-76.2118
-121.344
-138.486
-98.2129
-11.6606
-124.732
-147.609
-130.426
-150.113
-87.1267
-99.1702
-95.2796
-90.676
-93.6249
-115.249
-116.179
-13.2021
-161.071
-121.417
-118.007
-136.818
-73.7281
-57.7613
-82.1335
-82.3119
-151.396
-141.084
-148.006
-190.875
-99.4179
-67.6175
-68.8627
-133.06
-131.863
-134.858
-106.926
-253.887
-142.871
-112.57
-137.343
-140.151
-151.58
-78.9725
-114.962
-92.4593
-117.252
-135.93
-8.57999
-196.459
-85.0594
-67.4208
-220.168
-52.6424
-118.823
-171.895
-136.021
-136.281
-181.32
-17.5856
-131.937
-104.924
-77.4868
-126.622
-127.118
-189.043
-120.883
-157.846
-193.974
-189.479
-119.824
-103.654
-148.562
-78.7339
-145.263
-119.92
-105.753
-122.754
-132.085
-160.227
-141.107
-127.041
-137.967
-141.512
-169.458
-158.976
-139.336
-135.307
-151.155
-92.5129
-112.798
-6.51826
-139.682
-118.314
-46.9853
-46.9343
-38.4087
-102.995
-107.118
-105.41
-74.1028
-96.569
-78.4183
-97.7796
-92.0182
-56.9123
-78.0646
-155.006
-98.4635
-143.139
-21.6731
-21.634
-109.495
-105.157
-98.8455
-89.9495
-90.6716
-88.144
-88.9024
-138.033
-74.4805
-154.881
-60.3928
-51.7822
-104.95
-15.3712
-87.7955
-14.0999
-76.6901
-114.224
-144.295
-206.375
-86.4541
-81.1328
-82.9708
-74.1606
-114.435
-145.325
-18.9872
-17.3989
-11.5809
-123.41
-98.7986
-80.5567
-67.9462
-140.213
-132.381
-142.673
-14.6986
-31.1326
-169.766
-107.847
-15.5228
-15.1669
-137.345
-128.348
-126.654
-53.5837
-167.184
-166.514
-74.7214
-97.164
-103.788
-103.11
-262.077
-60.2504
-89.1134
-78.3804
-102.712
-108.451
-205.291
-126.932
-69.2668
-119.969
-69.2976
-87.7916
-139.688
-5.36986
-104.629
-71.6314
-105.846
-114.491
-142.143
-164.502
-119.978
-152.382
-147.365
-61.3355
-71.7427
-124.533
-133.207
-78.613
-77.9313
-82.2086
-103.649
-125.468
-53.8578
-105.689
-106.029
-65.6732
-67.7614
-56.9158
-65.3569
-50.313
-65.6799
-43.819
-112.987
-168.573
-49.072
-151.505
-155.664
-113.88
-120.451
-93.293
-111.881
-126.088
-119.248
-108.588
-203.338
-92.8522
-83.4737
-142.978
-56.4458
-140.569
-94.9143
-133.235
-119.267
-88.8164
-124.547
-123.349
-27.7459
-135.487
-132.885
-133.293
-154.257
-27.0501
-29.5834
-145.162
-13.8583
-71.9013
-69.7746
-57.5183
-69.952
-136.057
-114.807
-100.653
-86.5901
-94.3287
-114.249
-114.222
-127.511
-172.004
-46.6168
-87.1352
-125.592
-138.247
-52.4257
-111.452
-22.786
-112.088
-136.9
-47.2614
-72.7249
-109.328
-20.1506
-112.729
-174.039
-123.882
-145.854
-44.6649
-279.727
-203.374
-196.534
-107.389
-102.921
-106.623
-109.994
-119.175
-64.9127
-153.742
-66.6956
-129.908
-126.974
-146.929
-132.764
-83.1678
-76.8238
-278.849
-131.714
-125.363
-80.689
-169.457
-134.665
-137.922
-73.2646
-72.8211
-108.645
-126.035
-134.976
-45.7112
-68.1927
-89.2464
-80.0857
-81.5327
-76.6862
-73.1092
-29.4945
-97.9897
-50.3414
-142.829
-52.1455
-158.911
-15.8401
-10.9549
-94.751
-86.8618
-81.9245
-139.945
-7.05761
-82.7504
-99.7428
-95.9379
-130.578
-42.4234
-14.5958
-105.089
-154.199
-98.4852
-76.921
-117.267
-20.7057
-93.1402
-79.9802
-137.217
-110.306
-142.496
-142.508
-156.958
-49.1155
-213.447
-261.239
-239.011
-34.4583
-180.518
-99.2945
-137.5
-110.176
-187.626
-203.113
-216.716
-126.124
-167.45
-87.8352
-82.7586
-77.3624
-92.0827
-119.724
-91.3316
-137.394
-81.8686
-93.4656
-89.5774
-75.5579
-87.3108
-158.12
-100.841
-107.866
-104.617
-62.2701
-138.648
-83.2428
-179.857
-189.957
-272.328
-264.998
-37.8952
-74.7145
-123.682
-57.1808
-111.209
-75.0019
-157.991
-59.8663
-133.741
-136.343