/*--------------------------------*- C++ -*----------------------------------*\
| =========                 |                                                 |
| \\      /  F ield         | OpenFOAM: The Open Source CFD Toolbox           |
|  \\    /   O peration     | Version:  2212                                  |
|   \\  /    A nd           | Website:  www.openfoam.com                      |
|    \\/     M anipulation  |                                                 |
\*---------------------------------------------------------------------------*/
FoamFile
{
    version     2.0;
    format      ascii;
    arch        "LSB;label=32;scalar=64";
    class       surfaceScalarField;
    location    "10";
    object      phi;
}
// * * * * * * * * * * * * * * * * * * * * * * * * * * * * * * * * * * * * * //

dimensions      [0 3 -1 0 0 0 0];

oriented        oriented;

internalField   nonuniform List<scalar> 
187412
(
-0.00320215
0.00117027
0.00176002
0.000284038
-0.00388549
0.00470778
-0.00094021
8.09561e-05
-0.00510973
0.0268503
-0.0209316
-0.00145626
0.024309
-0.0243069
-0.00497243
0.00124637
-0.0032167
0.00174477
0.000241228
0.00325109
-0.00175876
-0.000223582
0.0152372
-0.0253322
-0.00386164
-0.000455538
0.0042664
-0.00330882
-0.000546858
-0.000358355
0.00276247
-0.00301585
0.000544344
0.00502073
-0.00364186
-0.00168626
0.00868
-0.00473183
-0.00521531
0.00120035
0.00296423
0.00608486
-0.000351995
0.00327453
-0.00491861
0.00113225
0.00271676
-0.00228465
-0.000116286
-0.000294055
0.00225222
-0.000187303
0.000716872
-0.0256407
0.0255285
0.000229992
0.00329328
0.00315169
-0.00577815
-0.000616006
-0.0268477
0.000772906
0.000407719
0.00613085
-0.0321153
0.0272118
-0.00119195
-0.0229318
0.0284855
0.000678394
-0.00743542
0.00320465
0.00250358
0.00168225
0.0054326
-0.00247487
-0.00406098
0.00118678
-0.00621438
0.00170069
0.00916661
-0.00639731
1.04865e-05
-0.00277233
0.0304569
-0.00609593
-0.0228907
-0.00158299
-0.0024494
-0.00447117
0.00660334
0.000285523
0.00428755
-0.00530549
-0.00133766
-0.00133965
-0.0119592
0.016583
-0.00330137
0.0157203
-0.0298503
0.0190354
-0.00655373
-0.00166985
-0.00709184
0.00818893
0.000400522
0.0176064
-0.0391164
0.0146629
0.00695773
0.00328106
-0.000506992
-0.00421495
0.00143741
-0.00703195
0.0331759
-0.0111928
0.00258939
-0.00221474
-0.000270312
-7.95354e-05
0.00185869
0.027375
-0.0280599
-0.000451978
0.000323857
0.00386501
0.00500988
0.00369578
0.000838591
0.0136607
0.016075
-0.0328794
0.00319835
-0.0170752
0.0227376
0.00418674
-0.000398094
-0.00483857
0.00496162
0.000274442
-0.0034244
0.000414611
-0.000209247
-0.00113317
-0.00214904
-0.000164723
0.00749007
-0.0047479
-0.00129969
-0.0012203
0.00158863
0.00330051
0.00263092
-0.00185626
0.00613052
-0.000951091
-0.0120647
0.0384979
-0.0264104
0.00087732
0.0165586
-0.0346384
0.00480773
0.0329928
0.00496146
0.000407033
-0.00576253
-0.00227207
0.00490551
0.00325564
0.0255159
-0.0258374
0.000860337
0.0452167
-0.00128727
-0.0352044
0.00139696
0.0259081
0.0176928
0.00186789
0.0305524
-0.00503701
0.00148485
-0.00671552
0.00499982
0.000192425
0.00755912
0.0256043
-0.0362903
0.00265854
-0.00517249
0.00315036
0.00200485
6.55242e-06
0.00543684
-0.00275311
-0.00267181
-5.27589e-05
-0.00434238
0.00470443
0.000267455
-0.000689739
0.00420276
-0.00596083
0.00419443
-0.00241819
0.00779675
-0.000906539
-0.00142885
-0.00452816
0.00168273
-0.00118181
0.00276293
-0.0021246
0.000508379
-0.00434027
0.00317996
0.0012177
-5.93958e-05
0.0290777
-0.00318649
0.00363348
0.0029721
0.000416829
-0.000101087
-0.00761298
0.0072362
-0.00010985
0.000383049
0.00310972
-0.0020369
0.000142354
0.00467226
1.19953e-05
-0.000457608
0.00118986
0.00441882
-0.00250646
0.00311652
0.000162571
-0.0033466
6.21328e-05
-0.00201731
-4.93945e-05
-0.00286042
0.000232942
0.00290405
-0.000301023
0.00615471
-0.00110229
-0.00655463
0.00160111
0.0475304
-0.0160373
-0.00455352
0.00437927
-0.000564786
0.000879138
-0.00518448
-0.000231882
-0.00227427
0.0302798
-0.0291036
-0.0101524
0.0080856
0.00387443
-0.00390512
-0.000630388
0.000645886
0.00309228
0.000268776
-0.00797859
0.00577375
0.000392464
0.00183011
0.0423151
-0.020639
-0.0176143
-0.000531724
0.0179454
0.0311555
-0.00627699
0.0421909
-0.0233629
-0.00278244
0.00515448
-0.00101152
-0.00338318
-0.000776754
0.00554458
-0.000169588
-0.000237475
-0.0177065
0.0148724
0.00207823
0.000909958
0.0461928
-0.0433977
-0.00380664
0.000679977
0.000200832
0.00369665
0.0233297
-0.0235173
-0.00331381
0.00385242
-0.00169016
-0.00155333
-0.000612722
0.00762465
-0.00660132
-0.00081829
0.00218081
0.0053095
-3.62141e-05
-0.00996286
-0.020303
0.0321075
-7.87793e-05
0.00622629
-0.00653476
0.00260223
-0.00235114
-0.035101
0.0266069
0.00393652
0.00423752
0.00044339
0.00299894
-0.00339495
-7.11385e-05
0.00350151
-0.00314962
6.95789e-05
-0.0039649
0.000660842
0.00278817
0.000519589
-0.0032954
-0.000107911
-0.000558021
0.00277234
-0.00568482
0.00520542
-0.00237464
0.00804121
-0.00457042
-0.000607253
-0.0148725
0.0216673
-0.00463125
-0.00223686
0.0072093
-0.00560053
0.000543652
-0.01596
-0.0146791
-0.0037892
0.00639366
-0.00535116
-0.000215893
-0.000786145
0.000977304
-0.0037166
0.00337876
-0.000610277
-0.00255905
0.00482344
-0.00243597
0.00021513
-0.0379228
0.0271326
0.0103545
0.000539897
0.00621671
-0.00250685
-0.00375074
7.46836e-06
-0.00439056
0.00465123
-0.000686974
0.000399234
-0.0045547
0.00342831
-0.00142395
0.0119406
-0.00434171
-0.00426754
-0.00331256
0.0218816
-0.00612567
-0.000262268
0.00330159
0.00254732
0.00607746
0.00230163
-0.00543627
-0.00261268
-0.00324994
-0.000619211
-0.000506341
-0.0069912
0.00462257
0.0011095
0.00132
-0.00247283
-0.00485884
0.000206328
0.00801216
-0.00531086
-0.00292306
0.000195125
-0.00457776
0.00396747
0.003089
-0.00257573
0.0304038
0.00179689
-0.0305526
0.00270473
0.000435101
-0.000486895
0.00371493
-0.00443054
0.000997192
-0.000283102
0.00284123
0.000472164
0.00342101
0.000180517
-0.00342543
-0.000155185
0.00281316
-0.00374368
0.00140204
-0.000468644
-0.000536038
0.00590779
-0.00627183
0.000831262
0.000707512
-0.0313689
0.0253778
0.00725106
0.00647782
-0.00104291
-0.00499017
-0.000414897
0.00581048
-0.000287187
0.00047273
0.0363802
-0.0209646
0.00264553
-0.0422845
0.0331898
0.00837259
0.00111724
-0.0142466
0.0280326
-0.000868251
0.00313445
-0.00142545
-0.00873083
0.0267333
-0.0150434
-0.00135645
0.00792147
-0.00876582
-0.000215248
0.00104059
0.00669966
-0.000688287
-0.0373851
0.0348424
0.0031041
0.00038455
0.0119941
-0.0274051
-0.00717057
0.038537
-0.0221297
-0.00420141
0.025591
0.000115464
0.0333173
2.03144e-05
0.00916846
-0.00391435
0.000157371
0.0342658
-0.00163321
0.0252254
0.0116771
9.36339e-05
0.0302209
-0.0188679
0.00302197
-0.0244729
0.0179237
-0.0039488
-0.0043099
0.00386302
0.000972516
-0.000372205
-0.00570018
0.00745374
-0.00252927
0.000724306
0.0343596
-0.0173858
-0.00107328
-0.0379489
0.000445243
-0.000751041
0.000611811
0.0049238
-0.00357609
-0.00207835
0.00952909
-0.00615407
-0.0016928
-0.00174101
-0.0307184
-0.00700857
0.03105
0.00741603
0.011149
-0.0339303
-0.00707677
-0.0269091
0.00349402
0.0296654
-0.00565777
2.09212e-05
0.00458217
-0.00424105
-0.000362894
-0.00746805
0.00532049
0.00367253
-0.00153264
-0.00022843
0.00642432
0.000216488
0.0070995
0.0166164
0.00624931
-0.00665077
-0.000901382
0.00161178
0.000304691
-0.0031998
0.0027239
0.000171011
-0.0258736
0.0404485
-0.00149716
-0.0111583
-0.00621701
-0.00274139
0.00196529
0.00455561
-0.00730291
0.000813395
0.00669254
-0.00454593
-0.000222155
-0.000193549
-0.00526769
0.00536315
8.9784e-05
0.00522879
-0.000114113
-0.00532378
0.000298077
0.00104037
0.00176206
-0.000193752
-0.00827981
0.00508829
0.00265406
0.00062444
0.00230054
0.000683207
-0.00332274
0.000345576
-0.00353047
-0.00232368
0.00175457
-0.00208725
0.00556653
-0.00345591
-0.000258663
-0.00844445
-0.00512011
0.0134009
3.03103e-05
0.00644134
-0.00742494
0.000514295
-0.00429903
0.00567677
-0.00110592
-0.000286459
0.00278467
-0.00375889
-0.00279501
0.00378449
-0.00136326
-0.0040041
0.00281741
0.00711638
-0.00194793
-0.000803156
-0.00464938
-0.00205801
0.00575528
0.00100773
0.00144852
-0.00639964
0.000436578
-0.00600711
-0.000371527
0.00664292
-0.000350669
-0.025494
0.0028914
0.025725
-0.00311026
0.00327122
0.00125973
0.00390852
-4.08576e-05
0.0021193
0.00165487
7.89292e-05
-0.00796725
0.00312568
0.0014799
-0.000379896
0.00966123
-0.0102127
0.000908249
0.00487455
-0.00431742
-0.000554058
0.00488271
-0.000320417
-0.00562091
0.000892418
0.000975822
0.00600621
-0.00214391
0.0113772
0.00412667
0.000235036
0.0161241
0.0146913
0.000280857
-0.0186695
0.0206055
-0.00979643
0.0047034
-0.00283328
0.00308376
-9.52458e-05
-0.00515497
-0.00321216
0.000536147
-0.0106608
0.0126482
-0.000776323
-0.00111038
-0.00567931
-0.00230348
0.000542547
0.0130026
-0.0294567
-0.00305662
9.34581e-05
0.00316338
0.000195285
0.00217542
-0.00285542
0.00176537
-0.00107346
-0.032339
0.0312586
0.000545217
-0.00194384
-0.000763926
0.00305484
-0.000332328
0.000958566
-0.0029249
3.74521e-05
-0.00412221
0.002391
0.00189107
-0.000173083
-0.00368026
0.000521491
-0.0323726
-0.00964394
4.71087e-05
0.00652765
-0.000252898
-7.09732e-05
-0.00127949
0.00965892
-0.0118524
0.00397723
6.74627e-06
0.00559675
-0.00524134
-0.000294984
-0.000217775
-0.00280968
0.000837335
0.00621438
-0.00250591
0.000914246
0.00243426
-0.00119936
0.00194926
0.00108141
-0.00311728
0.000120277
-0.00154851
0.0031892
0.000340351
-0.0216026
-0.00581134
-0.0259127
0.0234205
0.00254537
0.000746594
-0.00563682
-0.00136344
0.00336453
5.30734e-05
-0.000319222
0.00284177
-0.000210947
-0.000609077
-0.000112134
0.0392203
-0.0147058
0.000789013
0.0139722
-0.0011922
0.00313417
-0.00149153
-0.000138576
-0.00729846
0.00444353
0.000682612
-0.01249
-0.00218587
0.00620556
-0.0313583
0.0187681
0.00771899
0.00532647
0.000626275
-0.00516759
0.00472032
-0.000215691
-0.0385041
0.00489753
-0.00307613
-0.00360382
-0.00965063
0.0542516
-0.0055147
-0.0234673
-0.000858646
0.00358331
0.000266182
-0.0336236
0.0109764
-0.00151687
-0.00674728
0.00716153
0.000516752
-0.000605831
-0.00137629
-0.00330133
-0.00534498
0.00221422
-0.00333999
-0.0289616
0.00562281
0.00773694
-0.00117693
-8.15536e-05
-0.030981
-0.00245786
0.00145325
-0.0030668
0.0010736
0.000550573
0.00514052
0.00030779
0.0068306
-0.000586032
0.00151504
0.00133229
0.0017643
0.00130195
0.020097
-0.0265004
-0.000509192
0.000240489
-0.00310481
0.00242789
0.000453322
0.0309644
0.0105505
0.00410288
0.00611454
-0.00341362
-0.00238225
-0.000540165
0.00236163
-0.0281892
0.0016081
-0.00835429
-0.00450737
0.000456663
0.0151724
-0.0280026
0.0143992
-0.000955324
-0.0147585
0.00830956
0.00644409
-0.000144188
0.0115315
0.0183098
0.00807624
0.00986889
-0.0268655
0.0142613
0.00266021
0.0074472
-0.00170976
0.00403471
-0.00253163
-0.00159659
6.83401e-05
0.00076769
0.00412028
-0.00086289
-0.00494739
0.00162004
1.53444e-05
0.0252744
-0.0216453
-0.00198802
-0.0349703
0.00524255
-0.00179422
0.0302012
-0.00855461
-0.0213374
-0.00101811
-0.00987215
0.0366157
0.000891239
0.0252302
-0.000294804
0.00042407
-0.0220002
-0.00999942
-0.0016214
-0.00121354
-0.00469608
0.00125473
-0.0353536
0.0232924
0.0117596
0.000355375
0.0307012
0.0118677
-0.0200777
-0.00940961
0.00307193
-0.0037735
2.04658e-05
0.000687463
0.00462167
-0.00336059
0.00113392
-0.00540637
0.00401134
-0.000446482
-0.00510557
0.0127975
-0.00675657
-0.000896958
0.000360765
0.00326987
-0.000552361
0.00353443
-6.32288e-06
-0.00403641
0.00052736
-0.0440608
0.0412721
0.00166292
-0.00053353
-0.0166166
-0.0251089
-0.00335878
-0.00966449
-0.00689264
0.0166837
4.04473e-05
-0.00483893
0.00126527
-0.00168817
-0.00435803
0.00599096
-0.00103391
-0.0057905
0.00556997
0.000254889
-0.00361748
0.00499826
-0.0396432
0.0106808
0.0169364
0.0122621
0.0307741
-0.000285145
-0.000179895
0.00263234
-0.000272784
-0.0330134
-0.00290926
0.000336873
0.00482306
0.00203107
0.000253138
-0.000325494
0.00491932
0.00019177
-0.00459088
-0.0257627
-0.00139034
0.00522987
0.000425537
-0.00521965
0.000172587
0.0219296
-0.0172682
-0.00629359
0.00164011
-0.00248829
0.00026078
0.00299531
-0.000781223
-0.00379792
-0.0117125
-0.0103833
-0.0124152
0.0229926
-0.000154987
-0.0253941
0.0426389
-0.00405135
0.00733696
-0.00741229
-6.95286e-05
0.000180113
0.00228218
0.00646463
-0.0013601
0.00164666
0.00297779
-0.000393695
-5.47808e-05
0.00514288
-0.000231394
0.027858
-0.0146808
0.0022548
-0.0240216
0.031553
8.34269e-06
0.0161651
-0.027044
0.000544965
-0.00231003
0.00131011
-0.000695659
0.0186642
-0.021488
0.00665017
-0.00379611
0.0192813
0.00889964
0.00591925
-0.0400249
0.0252598
0.014749
-0.000778455
0.0132951
-0.0289175
-0.00180545
-0.00250885
-0.00754055
-0.00478568
-0.0219361
0.000296772
-0.00133053
-0.00507535
-0.000140141
-0.00325917
-0.00142601
0.00505984
-0.000279107
-0.000457947
-0.00398778
-0.000509791
-0.00585281
0.00569948
-0.000244294
-0.00254264
0.00537962
-0.00247756
-0.000305661
-0.00710778
0.0203084
0.00568848
0.00934489
-0.000845674
-0.00936642
0.00104445
-0.0126526
-0.0325491
0.00205858
0.000879122
0.00296086
-0.00351708
-0.00034318
0.0033083
-0.00481591
0.00175263
-0.00278216
0.00277916
-0.000257764
0.000257375
0.00425551
-0.000137001
-0.00462883
0.000428691
-0.0237151
0.0238809
0.00314818
0.00891048
0.000844828
-0.00323021
-0.00496479
0.00436381
0.000265043
-0.0119418
0.0266628
-0.00273456
0.00651319
-0.000987472
-0.00491758
-0.000629151
0.00198655
-0.00247655
-0.000497819
0.00106642
0.000308956
-0.00742494
0.000333564
-0.031368
-0.00175492
-0.00525049
0.000185456
0.00143161
-0.00241021
0.00136189
-0.000413377
0.00321471
-0.00199957
0.000225226
0.00222529
-0.00176373
-0.000157248
-0.0155213
0.0368532
0.00266508
-0.00194072
-0.00201223
-0.00103709
0.00549921
0.000161176
0.00070185
0.00666694
-0.00352015
-0.00233132
-0.000819906
-0.00410155
0.000331952
0.00756451
-0.00297727
-0.00490919
0.00028019
-0.000969425
0.000301387
-0.0249108
-0.0011858
-0.000170936
0.0232828
0.0147303
0.00234856
0.000603274
0.00648451
-0.00165533
-0.0051169
-0.00451816
-0.00394301
-0.0165851
0.0298731
-0.00208112
0.0100577
0.000764532
-0.00112364
-0.00609342
0.00165093
0.00612671
-0.00534452
0.00147536
-0.00229242
0.000265697
0.00416863
-0.00298951
-0.00155957
0.00511567
-0.00459992
-0.000320479
0.00500431
-0.00620078
0.00353983
-0.00232878
-0.00399101
0.00887739
0.000100264
-0.0082697
0.000203482
-0.00174069
0.00166743
-0.00023422
-0.00332278
0.00258721
6.56906e-05
-0.00387033
0.000267124
-0.00314824
0.000433632
-0.00152276
0.00449523
-0.00482555
0.000439233
0.0038067
0.000316764
0.0185846
0.00421249
-0.0239642
0.00627822
-0.00445132
-0.00518112
0.000903865
0.00140431
0.00483008
0.000118047
-0.0015511
-0.00127533
3.09995e-06
-0.0153852
-0.013478
0.00333047
0.00727021
-0.00152171
-0.00588057
8.32414e-05
-0.00100552
-0.0290228
0.00325722
-0.0286364
0.0115899
-0.0028116
0.00378666
-0.000544964
0.000501495
-0.0128832
0.0121364
0.00633764
-0.00682342
0.00336178
0.00382444
-0.000700057
0.0112024
-0.0395552
0.00532783
0.00137935
-0.00304087
0.00046217
0.00227767
-0.000507152
0.00267345
0.00423548
0.000231664
-0.02152
0.0283073
-0.00352033
-0.00202077
-0.0017211
-0.000181756
0.0029324
0.00116274
-0.000859112
-0.0028631
0.00507114
4.28099e-05
-0.00478424
0.00148996
0.00331745
-1.41058e-05
0.00170803
0.00236318
0.000553944
0.0301671
-0.00580262
-0.00754255
0.000140796
0.00162339
-0.0015711
-0.00621966
0.000106403
-0.012127
0.000652509
-0.00245308
-0.00170399
-0.000147094
0.000452107
-0.00395771
-0.0013425
-0.0199635
0.00454467
0.0214765
-0.00301255
0.0106377
0.0159734
0.00403554
-0.00138965
0.00289474
-0.0277566
0.0250287
0.00550424
0.00665916
-0.00190564
-0.00465049
-6.24041e-05
-0.00348995
-3.74226e-05
0.00371077
-0.000183449
0.00292117
-0.000813983
1.37171e-05
-0.0424289
0.0403266
0.00178582
-0.000803703
0.00558347
-0.00350262
0.000177979
-0.00538987
-0.000224414
0.000731175
-0.0103104
0.0299471
-0.0194154
-0.000389821
-0.00522499
-0.00100473
-0.00202456
0.0131651
-0.000117607
0.00446064
-0.00484234
0.000624629
-0.000134831
0.0046583
0.00121017
0.00439283
-0.000724576
-0.000183035
-0.00275651
0.00133564
-0.00506885
0.000536391
-0.025208
0.00979296
-0.00132842
-0.00585254
0.00484714
0.00160556
-0.000617007
-0.0346657
0.016386
0.0137688
0.00464348
-0.0280126
-0.00532138
-0.00504889
0.00158504
0.000963756
0.00480856
-0.00137817
-0.00449107
0.00106017
-0.000325348
0.00375128
0.000118308
0.00507817
-0.00105577
-0.00537752
0.00150874
-0.00238495
0.00054445
-0.0343258
0.0203929
0.0135335
0.00111341
0.0129989
-0.0218945
0.000604883
0.00311405
-0.000206682
-0.0027218
-0.000189827
-0.00451022
0.000125338
-0.003137
-0.00172365
0.00035877
0.000610684
0.00608838
-0.00104771
-0.00603562
-0.0201698
-0.00912056
0.00823081
0.000386682
-0.00194468
0.0159591
-0.00212752
-0.0184879
-0.00946876
0.0276295
0.000465273
0.0145748
-0.0311834
-0.00144762
0.00470582
-0.00047946
-0.00511426
0.000901824
0.0308916
-0.0239666
-0.00225351
0.0395507
-0.0220093
0.00515671
0.0246342
-0.0176472
0.000507317
-0.000142675
-0.0220119
0.000105611
-0.00387284
-0.0043753
0.00162513
0.00338281
-0.0328203
0.0248479
0.00536097
8.44952e-05
0.000681022
0.034479
-0.0189627
-0.0148529
-0.00110176
0.0308812
-0.000519857
0.00199741
0.00101051
-0.00321987
0.000225186
0.0232789
0.00426525
0.0308726
-0.0385997
0.00735639
0.00303005
-0.00286209
-0.000678
-0.000372081
0.00311405
-0.00268979
0.000212165
-0.00063957
0.000434151
0.000259795
0.0220371
-0.0247936
0.00254777
-0.00392357
0.000208698
-0.000173947
-0.0014608
-0.00539248
0.00225307
0.0343851
-0.00134077
0.00149259
0.00213089
-0.0225935
0.0411407
-0.00708827
-0.0108626
-0.0323184
0.00409881
0.00330349
-0.000812883
-0.00370463
0.00116122
-0.0199766
0.0182762
-0.00562847
-0.00316078
0.00264871
0.000380655
0.000127577
-0.0282447
0.0178553
0.00358955
-0.00366914
-0.00280024
0.00656533
0.000145165
0.00424364
-0.000389413
-0.00171109
0.00232656
6.70951e-05
-0.00117147
-0.00291844
0.00123386
0.000858111
0.0246035
0.000386017
-0.00733777
0.00143454
-0.000347795
0.00419029
-0.00361076
-0.000259888
-0.0265266
-0.00136155
-0.00436387
0.0035332
0.000577368
-0.000512327
0.0541027
-0.0217721
-0.0114973
-0.0216083
0.00274106
0.00263393
-0.00577779
0.000430159
-0.0305621
0.00285755
0.00426856
-0.00633254
0.00300491
-0.000736774
-0.0300949
0.0298575
-0.00127264
0.00171594
-0.0341214
-0.00116821
0.00534591
-0.0294706
0.030191
-0.00108167
0.000444449
-0.00970103
0.0056087
0.00199371
-0.0041136
-0.00386201
-0.00188799
0.00201218
-0.0021807
-0.000594285
-0.0027476
-0.00685756
-4.00572e-05
-0.0104305
0.0026751
0.00446198
0.00310195
-0.000914536
-0.00371741
0.00108888
0.003012
-0.000396484
-0.00175951
-0.00204223
8.65904e-05
0.00236515
-0.00134171
0.00258446
-0.00395464
-0.000209502
-0.00296675
0.00561028
0.000158638
0.0188464
-0.00697769
0.00295302
-0.00105516
-0.000141545
-0.0195513
0.00597762
0.000481653
-0.0119402
0.0184995
-0.00280106
0.00531627
0.00330499
-0.00807532
-0.000495261
-0.0144284
0.000269837
-0.00151781
0.00497085
-0.00010993
0.0177335
0.0214422
-0.0055563
0.0149031
0.00271059
-0.0166114
-8.30179e-05
-0.00757637
0.00176588
0.000987996
0.00978106
0.0238625
-0.0303208
0.0061486
0.0237122
0.000567969
0.019555
-0.0349685
0.0110951
0.00433093
-0.0063612
0.00354936
-6.16269e-05
-0.000766695
-0.00299064
0.000649645
0.0252887
-0.0238477
-0.000697439
0.00725778
-0.00545492
-0.00125219
0.0016978
-0.000381716
-0.00567096
-0.00525493
0.000335265
0.0167636
0.0170744
0.00906386
0.00255527
0.00603635
0.000515732
-0.029488
0.00038134
-0.0344942
0.00344953
-0.0167869
-0.0175286
-0.000316479
-0.00343997
-0.00223642
0.00477229
0.000868814
-0.00508912
0.000472174
0.038174
-0.0182867
-0.00330266
-0.0024169
-0.000862381
7.66217e-05
-0.0174418
-0.00977069
0.000871458
-0.00334339
0.00209775
-0.00402256
0.00107649
0.000921656
0.00341452
-0.00215208
0.000967005
0.00214653
0.000912648
-0.00236954
-0.0162633
0.0133223
0.00535791
-0.000291411
0.00481126
0.00163071
-0.00630774
0.00192651
0.00259915
0.00168999
0.0048781
-0.00145998
0.00368382
0.031376
-0.00160681
0.00420304
9.86984e-05
-0.00119111
0.0308979
-0.019534
-0.01043
0.00437901
0.0065355
-0.00568706
-0.000743491
4.33444e-05
0.00832735
-0.00423472
-0.0041321
0.00409529
-5.42577e-05
9.56567e-05
-0.000547828
-0.00221521
0.000209422
-0.00134997
-0.000902224
-0.00429114
0.00205317
0.0013617
0.000850851
0.00515412
-0.00320529
-0.00244114
0.000486492
0.00846667
-0.00274842
-0.00525795
-0.000367705
-0.00416221
-0.000125474
-0.000879975
-0.00037412
0.00193255
-0.00191527
0.000357852
0.00272142
0.00409356
-0.000420802
0.00737094
-0.00243902
-0.00528211
0.000312956
0.00877801
-0.00261143
-0.00647368
0.000216658
-0.000833306
-0.000675321
-0.0204164
0.00115498
0.00289337
0.000446444
-7.82109e-05
-0.00377253
-0.00339673
-0.000286817
0.00373716
0.00319015
0.000430687
-0.00423467
0.00404723
0.000413809
0.00295762
-0.00308501
-0.000252945
0.0269967
-0.01943
-0.00807101
0.000300157
-0.000485311
-0.0045575
0.00371687
0.00131849
-0.00212205
0.00164828
-9.87612e-05
0.0314591
-0.0164794
-0.000927117
0.0181573
0.0153385
0.00809661
0.0009947
0.00097365
-0.00197829
2.31922e-06
-0.00105678
0.00182174
0.000216015
0.0039362
0.0327104
-0.0379603
0.000226033
-0.0142701
0.0247147
-0.0127414
0.00287383
-0.00251743
0.0027708
0.000509734
-0.000804979
-2.014e-05
-0.00180178
-0.000720746
0.00265689
-0.000208782
0.000311031
0.0023915
0.00102486
-0.000765818
0.00196185
-0.00308102
0.000486885
-0.00178441
-0.000626677
-0.00340754
0.00198394
0.0047359
-0.00171708
0.000285733
-0.00480166
0.00577244
-0.00194286
-0.00301653
-0.00246977
8.9743e-05
-0.0178921
-0.0165874
-0.0034549
0.00185856
0.00424069
0.00192765
0.0306354
-0.00295647
-0.00320419
-0.00335359
-0.000898485
-0.0455311
0.0191013
0.00998545
0.0161725
-0.0278556
0.0228046
0.00400085
0.000676382
-0.0177344
0.000384464
-0.0131615
-0.0175049
-0.0152675
0.00041512
-0.00147781
0.0112662
0.00152629
-0.0133751
0.000499988
-0.0308304
0.0309007
0.000380006
0.0341171
-0.0013015
-0.00655536
0.00466461
-0.00151338
0.0392192
-0.0050644
0.00351059
-0.00619902
-0.000332872
-0.00711176
0.000759376
-0.00323719
0.00410321
0.000554693
-0.00560627
0.00511307
-0.000246636
0.0273626
0.00803559
-0.0311836
-0.00179909
0.00164211
0.00270785
0.000809465
0.0369992
-0.0102275
-0.0014048
-0.0335939
0.0144295
0.0191511
-0.00227509
0.00161017
-0.00163704
-0.0337862
0.0200988
0.014705
-0.000801091
-0.0243217
-0.00301857
-0.00956627
-0.000759357
-0.0012451
0.0216939
-0.0142751
-0.00606253
0.0109229
-0.00516939
-0.00242513
0.002353
-0.00606842
0.00218581
0.00649894
-0.00387822
-0.000424313
-0.00139135
0.0328392
8.34676e-05
-0.00186431
-0.00441442
0.00770558
-0.00137801
0.00313676
-0.00161422
-0.00199487
0.000476096
-0.0284704
0.000454824
0.00784751
0.0047172
-0.000518813
0.00465134
-0.00155212
-0.00336885
0.000226879
-0.012886
-0.00343667
0.00273159
-0.000269252
0.000526767
0.00125345
0.00191617
-0.000444523
-0.0165528
0.00954674
-0.000100353
0.000853437
0.00154707
0.000354199
-0.0162975
-0.000804433
0.0213044
0.0118581
0.035289
-0.0106252
-0.00977545
0.003129
0.000693142
-0.00470317
0.000846434
0.0038988
-0.000503828
-0.000297627
-0.000129899
0.00564411
-0.00111055
-0.00757103
0.00557912
-0.000624055
-0.00367313
0.000294888
-0.00215772
-0.00124495
0.000245745
0.020608
-0.0293722
0.00990478
-0.000417778
0.0267878
-0.00446895
-0.00571048
-0.000702988
-0.00772018
-0.0108125
0.00157964
-0.00587816
0.00465178
0.00112543
-0.00364441
0.000475178
0.0174669
-0.0319065
0.0144339
0.000413286
-0.0142164
-0.000406496
-0.00379649
0.000371634
0.0284144
0.00131502
-3.96167e-05
0.00495164
-0.000300064
-8.48441e-05
0.032497
0.000247773
-9.83057e-05
0.0214032
-0.000448441
-0.000119472
0.00312397
-0.002786
-0.000326525
-0.0186174
0.00244547
0.0117246
0.00455748
0.0036082
-0.00513866
-0.000319442
-0.0184483
0.0244473
0.000631352
0.00458009
-0.00386565
0.00677033
-0.000277752
-0.00788479
-0.000270059
0.000406759
0.0051337
-0.00629786
0.000935268
0.00504151
0.00186278
0.00116185
0.00715739
-0.00317216
0.00108108
0.0327709
-0.0179589
-0.000467817
-0.00371548
-0.000140273
-0.00027029
0.0335535
-0.00340681
-0.00882852
-0.0164923
-0.00357073
-0.0316568
0.0160212
-0.0023324
-0.000231358
-0.00231104
-0.00351068
0.00645827
-0.000660119
0.0292671
0.00152188
-0.000134763
0.00343781
0.000299359
0.00203515
-0.000159289
0.00440987
-0.000673385
0.000119148
0.00443485
-0.000926305
-4.48676e-05
-0.00236739
0.00257718
-0.000165024
0.00288396
0.000163474
0.0253683
0.0119619
1.06737e-06
0.00366763
-0.000331338
-0.000224518
-0.0167555
0.0110546
0.00486137
-0.00506607
-0.0113802
-2.62463e-05
0.00549134
-0.00177012
0.000778517
-0.00674007
0.000627524
0.000229474
0.00691972
0.00360884
-0.00164237
0.0315343
-0.000576134
0.00369644
-0.00366397
0.000945197
-0.000991109
-0.00227171
0.00227218
0.000119545
0.00648663
-0.00168641
0.000166427
-0.0315867
0.00112669
0.00084999
0.00324637
-0.00436927
0.000289564
0.00486274
-0.000192555
-0.0277059
-0.0081389
-0.00901168
0.00998849
-0.0023147
-0.0099446
-0.0185924
0.0272794
-0.000172698
-0.00286051
0.002837
-0.00100022
-0.00325458
0.00553059
-0.00219964
-0.000118012
0.00175219
0.00156832
-0.000182042
0.0056415
-0.00102796
0.0158252
0.0051242
0.0014817
0.000551482
-0.000821946
0.0029598
0.00637561
-0.00165706
0.00109605
0.000525126
-0.00156613
-0.000124748
-0.000848856
-0.00234367
0.000268312
0.00230078
0.000160856
-0.00658255
0.00161785
0.00165474
0.00233946
0.00143285
-0.000562908
-6.42426e-07
-0.00696489
0.00805381
0.000109245
-0.00117984
-5.52745e-05
0.0020449
2.37538e-05
-0.0164732
-0.0178593
0.00052967
0.00553542
-0.00317448
-0.000103665
0.000231822
-0.0046232
0.00262715
0.00179058
0.0345847
-0.0215078
-2.94105e-05
0.0307932
0.00400675
0.000145619
-0.00221098
0.00503427
0.000368244
-0.00229049
0.00177604
0.000674614
-0.000155463
-0.00210368
0.00131272
0.00411088
-0.0013518
-0.00252557
-0.000230459
-0.000232266
-0.0026214
-0.000218811
0.00146036
-0.0274109
0.00746103
-0.00151342
0.0008305
0.00226033
-0.00216449
-0.000919473
0.0232678
0.000452756
0.00558442
-0.00116942
-0.000209176
-0.00418146
0.00219857
-0.00132376
0.000479516
-0.0298006
-0.00322239
-0.00379515
-0.00336355
0.00732101
-0.000122467
0.01914
-0.000407345
-0.0260888
0.00401122
0.0263995
-0.0131845
0.00515154
0.00186131
-0.00346261
0.00252807
-0.000996814
-0.0292026
0.0332855
-0.000128322
-0.0383174
0.0066272
0.0262522
0.00474625
-0.00219611
0.00503302
-0.00340788
0.000574352
-0.00757208
0.00106776
0.00083523
-0.00191451
-0.0042414
0.000561665
0.0176413
0.00870542
-0.00176082
0.00554353
0.000848801
-0.00359731
0.00568559
-0.00121641
-0.000823336
0.00320129
-0.00484095
-0.00182358
0.00519524
4.94979e-05
-0.0013773
0.000499551
0.00223062
0.000456438
0.0260186
-0.0250576
-0.00125923
-0.00210009
0.000869588
0.0304381
-0.0398118
0.0103695
-0.00142593
0.00256693
0.0015924
0.00167661
-0.00573799
0.0022769
-0.000256654
0.00417553
-0.00483068
0.000470877
-0.00788217
-0.000438444
-0.000749817
-0.00593166
-0.00161319
-0.000343273
0.0124088
0.00653716
0.00286968
-0.00223761
0.000465498
0.00298543
-0.000405596
0.000298748
-0.0266041
-0.00371956
0.000297433
-0.00256965
-0.000437561
-0.0218184
0.0364237
-0.0148894
-0.000386024
0.00267576
0.000640736
0.00418405
0.000532312
-9.57184e-05
-0.0238461
0.0367912
-0.0121912
-0.000925942
0.0197417
-0.0404266
0.000720767
-0.00320871
0.00278352
0.000108118
-0.0289475
-0.000117714
0.0075499
-0.00387426
-0.00011704
-0.00119267
0.00287677
6.25445e-05
-0.0150415
0.0279157
-0.016495
0.00459388
0.0152396
0.00359502
-0.000805585
0.00404828
-0.00340341
0.00018069
0.00666294
-0.00598083
-0.00157608
0.000796675
-0.00326364
-0.00111383
0.00358689
0.000862757
-0.00381819
-0.0011612
-0.00288467
0.00160688
-0.000452702
-0.0198733
0.0293357
-0.0066618
0.0131514
-0.00649361
0.0191711
0.0144421
-0.000184765
0.00119895
0.00601721
-0.000611559
0.00421466
-0.000971063
-0.000492827
-0.00266827
-5.88946e-05
0.00464454
-0.00530794
0.000880024
-0.0338402
0.00415844
0.0295761
0.00220519
-0.0207351
-0.00188872
0.00205823
0.000540136
-0.00151955
0.000519879
-0.0293217
0.0188152
0.000745785
-0.0227917
-0.0109294
0.000558408
-0.00739853
0.000940058
0.00617912
0.00029516
-0.00664275
-0.00201937
0.00870195
-1.33979e-05
0.00255814
-0.000270766
0.0168255
0.00536722
-0.00795951
0.00505494
0.00154202
0.0013359
-0.00713467
-0.0197284
0.000346498
0.00207124
0.00151672
-0.024821
-0.000107439
-0.00135588
0.00204665
0.00223005
0.000828027
-0.00232627
0.000115911
0.0237464
-0.00535276
-0.0180355
-0.00233656
0.00896255
0.00423506
-0.00396439
-9.6861e-05
0.000658632
-0.000367785
-0.00108565
0.024039
-0.0200927
-0.0026797
0.000229559
-0.000711128
-2.64224e-05
-0.0389502
0.00548163
0.0224246
-0.0030676
-0.0216091
-0.00929512
0.0017417
0.00567863
-0.00165884
-0.00460682
0.000607199
0.00712592
-0.00258761
-0.000135667
-0.000459783
0.00252644
-3.81624e-05
-0.000905064
0.00187403
0.000804435
0.000172024
0.00309528
-0.000898262
-0.000315798
0.00272114
-0.000234412
0.00015867
0.0252476
-0.00208005
0.0126432
0.00491267
-0.00840034
0.00669801
-0.00551312
-8.36105e-05
0.00419898
0.00228212
-0.00872149
0.0193989
-0.00139471
0.0136055
-0.0333854
0.00419438
-0.00550902
-0.00117014
0.00370794
-0.0013382
-0.00141627
-0.00394776
0.00173701
-0.000316531
-0.000521049
0.000642259
-0.0112138
0.0112391
-0.000775894
0.000704272
-0.0084717
-0.00337493
0.000614733
0.0270531
-0.0287725
-0.000556632
0.00247617
-0.0034775
0.000504061
0.00352502
0.000324472
-0.000725855
0.000969524
0.00171491
-0.00106508
0.00866046
-0.00201103
0.00216799
-0.00181703
-0.000174873
-0.00120232
0.00254191
-0.0020886
0.000772118
-0.00444333
-0.00106326
-0.000125978
0.00169724
0.0100677
-0.0297895
0.0190782
0.000494377
0.000185644
-0.0282037
-0.0017085
-0.00140042
0.00318991
-0.00164085
-0.000174234
0.0020194
-0.000747074
-0.00142443
-0.00685084
-0.000210774
0.00585321
-0.00724288
-3.6979e-05
0.0100289
-0.000486036
0.00043808
0.00377092
-0.000597103
-0.00469691
-0.00245956
-0.000164972
-0.00160013
0.00555913
-0.000102306
-0.0230881
0.000599977
0.00556972
-0.000974571
-0.0221363
0.0021168
0.000431456
0.0220958
0.00200159
0.00231699
0.0367653
-0.015817
-0.00312914
-0.0254403
0.0116083
-0.00123941
0.0249988
-0.0237695
-0.00182719
0.00504935
-0.000869195
-0.00350383
-0.000922646
-0.00192058
-0.0384421