/*--------------------------------*- C++ -*----------------------------------*\
| =========                 |                                                 |
| \\      /  F ield         | OpenFOAM: The Open Source CFD Toolbox           |
|  \\    /   O peration     | Version:  2212                                  |
|   \\  /    A nd           | Website:  www.openfoam.com                      |
|    \\/     M anipulation  |                                                 |
\*---------------------------------------------------------------------------*/
FoamFile
{
    version     2.0;
    format      ascii;
    arch        "LSB;label=32;scalar=64";
    class       volVectorField;
    location    "10";
    object      U;
}
// * * * * * * * * * * * * * * * * * * * * * * * * * * * * * * * * * * * * * //

dimensions      [0 1 -1 0 0 0 0];

internalField   nonuniform List<vector> 
76405
(
(9.68634 -0.0263369 -0.0801925)
(10.4348 0.0986801 1.31037)
(5.20256 -2.81401 0.34523)
(5.40808 -0.795624 0.467074)
(11.3525 -1.08647 -0.657541)
(10.1623 -1.46084 -0.492905)
(9.15122 -1.87325 0.961421)
(7.8561 0.254623 -0.55072)
(7.57618 0.550176 -0.767837)
(8.12943 1.89405 -1.10102)
(9.25784 3.88098 -3.1305)
(8.94167 2.8214 -2.95793)
(8.85148 0.582971 0.659488)
(7.37114 0.510756 -1.11049)
(4.24303 -0.600254 -0.779716)
(8.13631 0.0411392 0.0135249)
(10.0007 1.07035 0.239926)
(8.18565 0.0576694 0.0149525)
(8.20176 0.448033 0.459861)
(8.16496 1.47857 0.486116)
(8.1782 3.50273 -3.27332)
(7.97579 -0.839452 -0.368009)
(10.6958 3.51886 -2.43111)
(8.88345 -2.98435 -0.0279548)
(8.50627 1.10575 1.43787)
(7.72419 -0.396503 -1.11965)
(6.14424 -1.92556 -1.60849)
(7.3671 -0.824447 -0.092855)
(7.94184 -2.45696 -1.76789)
(9.68882 1.18307 -3.29705)
(11.0182 1.98661 0.055942)
(12.0795 1.93121 -0.155549)
(7.06061 -1.22926 -0.78702)
(5.35548 -1.80501 1.12146)
(5.55075 -1.21381 -0.87724)
(8.06892 -2.30036 -1.65226)
(9.2107 2.57618 -2.95465)
(9.16186 0.806237 -0.444931)
(7.23071 1.90481 -0.418504)
(9.80443 -0.848466 -0.41099)
(9.53469 0.0595192 0.348381)
(8.11054 0.377473 0.0371022)
(7.16831 -1.48687 -3.03971)
(7.38214 -1.92848 -3.46495)
(11.9716 0.67407 1.0144)
(9.08645 0.435729 0.623356)
(10.2293 1.15281 1.38538)
(9.35041 0.422611 0.375806)
(6.82057 3.13938 -0.390483)
(7.71936 0.217812 0.00352911)
(7.34941 -1.67579 1.4043)
(7.6475 -1.42409 1.36522)
(11.566 2.06525 0.289149)
(10.7833 0.850781 -0.0840856)
(9.61234 -1.7194 -0.814434)
(10.6467 0.292825 0.995885)
(5.86495 1.1959 -0.0362797)
(5.69297 0.697778 -1.23871)
(7.86341 0.821754 1.2036)
(8.94023 -1.54492 1.05829)
(5.59163 0.527001 -1.76772)
(7.75877 -0.0154143 -0.811608)
(9.38962 -1.73769 0.563712)
(8.74866 1.38902 0.826278)
(10.0964 1.47724 -1.19325)
(8.50017 0.972129 2.064)
(7.83843 0.0818973 -0.515377)
(9.8936 1.62798 2.01626)
(7.08823 1.86099 -2.66028)
(10.6272 0.853684 1.4497)
(11.0778 0.625083 1.29115)
(10.3446 0.739205 0.782416)
(5.93356 1.81638 -1.45672)
(6.94593 -2.93184 0.46928)
(6.62581 -0.0530558 -1.53326)
(6.29205 0.753099 1.21423)
(5.21122 -0.883746 0.198308)
(11.1143 1.35953 -0.344573)
(10.3583 0.111841 -1.4877)
(6.77927 1.40169 -1.92018)
(8.3559 1.75364 1.58775)
(8.6117 1.81016 1.70707)
(9.69565 -2.52219 1.90852)
(11.5045 -3.53249 -1.41239)
(12.6937 -2.8419 -2.50527)
(10.1809 -0.862158 0.501847)
(10.4952 -0.816402 -0.373124)
(6.19806 2.72934 -0.0939022)
(7.81349 4.60996 2.21733)
(9.09261 -2.08356 2.3773)
(6.69386 1.73527 -0.934359)
(6.59134 1.28118 -0.902319)
(10.0782 0.0423157 2.82843)
(5.34033 -1.58975 -0.66227)
(7.69979 -0.890097 -0.299306)
(12.0913 -2.44287 2.45462)
(11.1426 -1.97442 2.42806)
(10.6983 -0.98332 0.178113)
(10.4586 -1.14887 0.80205)
(4.41635 -0.154959 -0.24972)
(6.43064 -0.549052 -0.0761505)
(10.371 1.46983 2.05382)
(6.09409 -0.2689 -0.184922)
(7.35412 -1.39169 0.00193572)
(7.92397 -0.110147 -1.44768)
(8.77335 -0.115399 4.72705)
(6.90423 -0.00442403 -0.933008)
(8.12748 0.0926203 0.00123932)
(7.17923 1.52934 -2.17482)
(9.31804 0.31735 0.511287)
(6.78253 -0.739271 -0.947734)
(14.0754 -1.17412 3.15963)
(6.74968 1.0841 0.411703)
(13.7876 -0.186338 0.147252)
(5.58642 4.38812 -1.56011)
(9.44211 -1.06681 0.750304)
(8.09737 0.593693 -4.24813)
(9.39805 1.12882 -3.84704)
(12.193 0.810838 -0.956047)
(7.9604 -0.602801 -2.66751)
(10.9744 4.0896 -2.01296)
(10.6442 -1.46076 0.548605)
(10.0138 -0.416458 0.576661)
(9.77742 -1.10325 -0.0139185)
(7.14632 -2.25726 2.03446)
(7.01013 -2.81514 2.06716)
(9.75519 1.42842 -1.77067)
(10.4938 -1.1627 1.44935)
(7.4492 -1.88643 -2.44333)
(5.53685 1.29077 -0.842097)
(9.02455 2.13742 0.79048)
(10.9599 0.0950337 -0.155708)
(6.3978 0.0959958 0.108739)
(6.9942 0.717362 -0.620335)
(7.2305 1.55452 -0.353127)
(10.8093 -0.752884 0.381523)
(7.90722 0.687082 0.281058)
(6.04275 -0.266854 0.826054)
(6.33806 -0.819344 0.487567)
(8.12637 0.060977 0.577447)
(8.14386 0.00802591 0.0114401)
(11.2566 0.0288648 -0.00100258)
(8.14781 0.029201 0.010951)
(10.303 -0.32703 -0.0323529)
(8.71115 1.23175 0.451465)
(10.4784 1.16672 1.47306)
(7.68319 0.0355332 -0.852272)
(4.92645 0.870102 -1.27163)
(6.13564 -0.643557 -1.06032)
(8.97385 1.08701 -1.02632)
(9.78559 0.853704 0.535301)
(5.28058 -2.05933 -1.0858)
(6.26403 0.987904 -0.289369)
(6.26713 -0.172708 0.285537)
(6.68758 -1.1272 0.79841)
(7.92509 -0.982808 0.671391)
(7.86391 -1.7884 -2.48185)
(8.27526 -1.2045 0.45144)
(7.30234 -1.97882 -2.48041)
(9.94379 2.36265 -2.57941)
(7.75523 1.60025 0.0853575)
(8.48293 -0.197218 1.03564)
(9.3487 -2.97168 1.28626)
(6.81154 0.57404 -2.17823)
(8.39247 -0.086938 -0.0377074)
(8.46211 -0.73481 -0.0453341)
(10.2171 2.6077 -0.314966)
(7.26209 3.01984 -0.922735)
(5.68726 -1.32038 1.53796)
(10.2166 0.123569 1.22089)
(11.3405 0.0429818 2.03186)
(5.28393 0.756493 -1.75783)
(5.38142 2.04819 -0.594057)
(6.60553 0.686798 -2.13862)
(11.6795 0.264835 -1.55451)
(11.634 -0.023579 1.16214)
(7.45694 1.21569 0.0758494)
(6.3297 0.254526 0.204607)
(7.89987 1.38486 0.544582)
(5.16598 0.730888 -0.988215)
(5.80503 1.26247 -1.38866)
(6.55218 2.75359 -0.642184)
(8.85663 0.303277 0.791662)
(8.5203 0.88572 0.634052)
(6.70619 0.65838 -0.592453)
(10.2008 -1.66237 1.90903)
(6.39649 1.50503 -1.33076)
(11.4189 -0.0292888 2.3126)
(8.32019 -0.181821 -2.7267)
(6.86022 -2.00455 -2.07369)
(6.54478 -1.57185 -1.28761)
(10.2047 -3.51923 0.288426)
(10.3769 0.91857 -1.53409)
(3.36348 -2.65893 0.605)
(1.52843 -2.02628 -0.446842)
(10.3681 -0.0198431 1.46486)
(7.28035 1.19016 -0.558465)
(8.03771 2.11842 2.47678)
(8.37496 -1.01858 -0.064693)
(4.12921 0.408707 0.577604)
(7.45322 -2.09575 1.92607)
(8.03317 1.61523 0.605047)
(7.06789 -0.501215 1.18971)
(7.51387 1.85256 1.93063)
(8.22785 0.262602 1.92071)
(9.84123 0.677872 1.84722)
(10.2882 -1.05278 2.49343)
(10.6732 0.103401 -0.0470125)
(7.16264 -1.37115 0.139772)
(7.87188 1.63755 -1.71338)
(7.3937 -0.85697 -2.26956)
(6.20184 -2.44216 1.03373)
(6.80502 -2.42601 -3.32853)
(6.63116 -2.33566 -3.01087)
(8.91842 1.63809 0.200804)
(8.49621 1.16865 0.719079)
(5.47316 0.308409 0.769524)
(11.2216 0.901584 -1.35445)
(10.8337 4.27654 -0.334253)
(5.43868 1.01401 -0.305127)
(10.9382 -1.28626 2.13714)
(6.46182 2.96284 -0.83777)
(9.06951 0.936623 0.677677)
(8.99807 0.53913 0.419406)
(10.6256 1.17269 -0.0625483)
(6.3929 0.116407 -0.479751)
(8.37316 0.107111 -1.68555)
(5.71084 2.822 -0.407362)
(8.44221 0.974804 -0.990189)
(5.88059 -0.996325 -0.0174867)
(6.67196 -1.63348 -0.185684)
(6.62948 -1.03139 3.23152)
(11.6248 -1.2906 1.44357)
(8.38962 0.89373 0.287795)
(8.10004 -0.149077 -0.332524)
(7.47292 -0.263286 0.22668)
(9.70469 -2.27553 -1.74389)
(7.3928 -0.104229 0.0785787)
(11.8833 1.11681 -3.57376)
(6.06721 -1.09565 0.974595)
(6.12425 0.947391 -2.05212)
(5.15839 1.18255 -1.23774)
(8.88393 -0.905702 -0.741408)
(5.90809 0.498751 -1.54138)
(9.06536 -1.05816 2.44273)
(7.34209 -1.52671 -0.408167)
(10.5049 -1.28198 -0.690317)
(4.81408 0.455261 0.784177)
(6.94637 -1.18172 1.10301)
(8.69672 1.18774 0.133929)
(7.05247 0.237018 0.880796)
(6.95187 -0.838349 -0.672353)
(7.96373 -0.0152086 -0.334719)
(6.38023 -0.00897842 -0.793983)
(11.3052 3.14657 -0.905619)
(10.2634 0.407129 1.44932)
(10.9248 1.00349 2.20288)
(9.99378 -1.6106 0.358145)
(9.05001 -0.622432 1.48944)
(10.2437 -2.35799 2.40525)
(7.81559 -1.26193 -0.290254)
(8.46995 -2.75627 1.80321)
(7.82656 0.272516 0.0136815)
(9.8235 -1.32601 0.739029)
(6.25252 0.484467 -3.61339)
(9.18402 0.134503 0.00201259)
(9.79826 -0.961034 2.24255)
(5.61155 -1.61111 2.05707)
(9.4612 0.804019 0.753984)
(11.0024 -0.480655 1.50254)
(9.9186 0.0295911 0.904402)
(7.55801 0.499974 -0.958899)
(9.21886 1.79566 1.13554)
(10.9106 -2.59956 1.33443)
(11.4477 -0.186998 -0.926341)
(11.0227 -0.367447 -1.13426)
(7.98646 0.132469 -0.960383)
(8.71203 2.7205 0.29251)
(6.81241 -1.36714 -1.12079)
(8.18137 0.0195306 -2.29196)
(9.38056 -2.07566 1.93767)
(6.99146 -0.687101 -0.855925)
(7.56591 -0.924857 -0.292155)
(9.12476 -0.30662 0.484623)
(9.27855 0.118139 0.00067968)
(8.93075 1.93504 0.627995)
(9.65549 0.502787 0.815104)
(7.92083 0.335475 0.221036)
(8.77225 1.24578 -0.668669)
(9.38355 0.739228 -0.0186503)
(5.55803 -1.24846 -1.46139)
(7.87513 0.253968 3.39492)
(7.01376 -0.859979 0.052979)
(8.14641 -0.0142313 0.0457366)
(8.1196 -0.222542 1.50257)
(6.61951 -0.440814 -0.951398)
(7.12131 -0.324056 -0.786055)
(9.60285 -0.502853 1.24652)
(4.60135 -2.01597 -0.437586)
(7.54308 0.83727 0.694699)
(9.87582 -1.86175 -0.876765)
(8.07051 0.107655 -0.00383011)
(6.73139 0.0623031 2.3386)
(6.21823 1.66965 0.482472)
(6.95272 0.78994 -1.55774)
(9.10674 0.74777 -1.36228)
(7.23103 -1.46906 -0.790069)
(5.22163 -1.09637 -1.0268)
(8.03242 0.0600575 -0.0040987)
(9.50528 0.951972 0.968539)
(5.67684 -0.397996 -0.559919)
(6.94966 0.116915 -0.528015)
(7.63097 1.7403 -0.400821)
(9.26741 1.68541 -1.19983)
(6.72809 1.47743 -0.170687)
(6.18296 -0.486555 -0.896581)
(11.0227 -0.387641 -0.873376)
(11.2262 1.85801 4.65522)
(9.15168 -3.80855 0.470525)
(9.64871 -1.12424 -2.36792)
(6.208 1.40301 0.138852)
(8.40153 0.639561 0.880117)
(8.12425 0.199847 3.48638)
(8.71889 -0.083898 0.733799)
(8.748 -0.786587 -0.251433)
(7.30159 1.68741 -0.599161)
(5.92403 -0.3168 0.913772)
(11.0543 0.939184 0.495731)
(6.87482 0.483009 1.45296)
(9.30954 0.350855 0.321651)
(5.88262 0.0733033 -0.990725)
(6.73428 1.59906 -0.890002)
(6.49721 1.07925 0.533641)
(8.69497 4.39873 1.47558)
(9.62565 -2.40104 0.650778)
(7.01961 -1.85796 -0.767853)
(9.99847 -4.19035 3.79762)
(10.1857 0.306844 0.520221)
(9.36578 -2.61234 2.05316)
(9.35525 -1.39601 1.6612)
(7.79322 0.491543 0.0572302)
(11.3163 -0.786773 -1.22247)
(7.86098 -2.26019 -0.310653)
(5.04083 0.0526889 -0.186278)
(6.47107 0.173797 -0.440273)
(7.85144 -0.0683961 1.65132)
(9.91396 2.47891 -0.284116)
(3.28385 1.86624 1.02256)
(5.31611 0.8221 -0.997403)
(6.75899 0.254005 -1.19892)
(7.07452 -0.8872 1.09697)
(9.16252 0.215235 0.770397)
(10.0396 1.09043 -1.78374)
(9.37706 -0.285981 1.90473)
(7.98266 0.119945 1.55814)
(8.87437 -1.38662 1.88743)
(12.9043 2.6204 2.09673)
(8.58189 -0.670445 2.2383)
(8.68188 -2.29427 2.10038)
(5.71587 1.42669 -0.51722)
(10.7813 -0.759509 0.857523)
(6.28364 1.01482 1.44919)
(7.04579 1.94828 0.0591688)
(6.98603 -0.160999 0.514887)
(9.28908 2.03394 1.33093)
(7.6536 -0.0314527 -0.589323)
(3.88005 0.783136 -0.838714)
(11.8939 -4.68095 0.321377)
(8.14839 0.0575341 0.00440994)
(3.19867 0.299546 -1.17439)
(8.32386 0.985628 0.234287)
(11.6286 -0.519921 1.20337)
(9.90472 -0.272821 -0.449013)
(8.16346 0.137255 0.404802)
(9.00431 1.09247 0.811708)
(7.38962 0.705836 0.0724603)
(11.2588 2.34841 0.963875)
(8.31875 1.53067 0.187283)
(8.00669 1.4625 -0.0185625)
(7.83728 0.0480305 1.84597)
(9.78582 -0.233343 0.652342)
(8.68206 -1.41689 -0.570027)
(5.6787 -0.674526 -0.980426)
(7.17502 -0.96789 -0.451992)
(5.11059 3.0449 -0.30239)
(9.66953 0.433021 1.20778)
(7.48156 0.67447 2.27619)
(5.56898 -1.03219 -0.290364)
(6.67368 -2.1155 -0.357104)
(8.97226 -0.662848 -4.07323)
(6.36191 0.384353 -0.321825)
(8.84687 1.14386 -0.912246)
(11.4387 0.290484 1.49428)
(10.1191 -1.56277 1.29845)
(7.65395 -2.99765 -0.509856)
(5.70819 0.851065 -0.430363)
(8.15949 0.771625 -0.762863)
(9.3298 -0.136962 -0.0246142)
(6.31991 1.36015 0.869781)
(9.05251 -0.0241176 -0.00548768)
(7.27088 0.784112 -2.40926)
(7.15146 -1.27929 -2.71888)
(10.9891 -2.58272 2.17712)
(7.04586 0.525785 -3.23133)
(6.43906 -2.1753 -2.07498)
(7.08498 -0.640112 0.590473)
(10.9882 -0.881784 0.842758)
(6.51769 -1.13324 -1.6146)
(10.2282 -0.448512 0.107865)
(8.60447 1.90815 -3.11525)
(11.0865 -0.532766 0.12354)
(10.729 -2.53924 0.876469)
(5.00998 1.13839 -0.397593)
(5.64925 0.716627 -0.789226)
(5.9765 0.929697 -1.29364)
(8.59957 -0.124658 -0.426574)
(7.60923 -1.43421 -0.0618408)
(10.7913 0.844902 1.74693)
(9.45004 -1.21597 0.744556)
(9.29504 -1.73255 0.918083)
(6.46842 0.297767 -0.25268)
(7.94666 -1.05494 -1.43434)
(10.9551 1.57395 -0.217197)
(7.38691 1.42901 1.47436)
(9.39501 0.327366 -0.0390265)
(8.89122 0.184995 0.014198)
(10.5055 0.337086 -2.74999)
(8.05229 1.85685 1.67113)
(9.70682 -0.33458 -0.616165)
(8.14005 -3.28931 0.281984)
(7.22141 -0.995061 0.382737)
(6.55971 -1.64048 -1.69162)
(5.75109 -2.79105 0.867102)
(7.0148 -0.374904 -0.201065)
(7.5826 -0.0727295 -0.930331)
(6.53598 -0.157077 0.530679)
(8.05976 -0.901698 2.00695)
(8.70695 -0.178065 -1.21988)
(7.28917 -0.53201 1.87626)
(6.6107 3.14267 -1.32842)
(10.6852 3.10836 -1.05673)
(8.04341 -2.4474 3.10313)
(7.86536 -0.414171 -1.81412)
(6.98047 -0.512252 0.605515)
(10.8317 -0.281949 2.02187)
(7.46502 -0.528504 -4.01959)
(11.1083 -0.0909001 -0.0320561)
(11.867 1.35046 -0.67383)
(8.65226 2.81223 0.214886)
(8.76238 -0.276582 1.05155)
(8.07868 -0.755307 0.595711)
(3.41771 -2.05129 -0.640519)
(10.4737 -0.175824 0.545496)
(8.92995 -1.13344 -1.68557)
(5.91874 -0.704489 -0.477207)
(5.70937 -0.730408 -0.709649)
(11.4188 0.30357 1.3513)
(8.76853 3.4537 -1.89552)
(8.82276 0.311144 0.450745)
(9.14839 -0.0213747 -0.376382)
(8.80339 2.92543 -2.88867)
(8.44667 0.807354 1.559)
(6.24537 2.88658 -0.542777)
(10.5478 -0.705832 0.717336)
(6.93812 -3.56578 1.4515)
(7.8421 0.149588 -2.3148)
(11.5711 -0.492207 -0.968494)
(7.38537 -0.517387 0.494717)
(10.1587 4.19178 -1.24778)
(11.1384 2.49803 -1.14497)
(8.91617 1.68836 0.812967)
(7.31561 1.79468 -0.184511)
(7.31829 1.85357 0.609494)
(6.62949 -0.348129 1.29494)
(8.21277 -0.626345 -1.21165)
(9.27106 -1.53244 -0.550798)
(10.322 -0.523867 0.14628)
(9.96158 0.281833 -0.324994)
(9.30709 0.859754 -0.21381)
(6.08639 -0.22828 1.33042)
(8.04175 1.38444 0.524954)
(8.94817 0.688345 -2.86734)
(5.79334 2.11158 -0.709108)
(12.1408 -1.97315 -1.81863)
(5.50859 -1.92368 -1.90983)
(3.22378 -2.86878 -0.667745)
(8.58407 -0.99421 -0.0634642)
(4.85443 -0.861388 0.220555)
(7.6697 -2.01874 -3.17168)
(6.99318 -0.485461 -0.256276)
(10.7264 2.96403 1.69828)
(10.4592 -0.966733 0.312687)
(5.8139 -2.94945 -0.411511)
(9.14372 -0.0931506 -0.00269422)
(7.57516 -1.57515 0.30962)
(9.82722 0.79555 0.576002)
(9.63532 -2.88524 0.237021)
(8.39739 0.282455 0.201842)
(6.25985 1.49582 0.07929)
(7.07554 1.78574 -0.116634)
(10.2764 -1.40492 -0.43188)
(7.34274 0.486557 0.819905)
(11.2781 0.0880875 0.00622818)
(11.177 0.759561 2.76538)
(9.25046 -0.182504 -0.00604411)
(8.21443 0.126367 -0.0573753)
(8.51109 -0.283768 -0.0467742)
(7.62589 1.40371 -3.64074)
(7.39428 1.22681 -4.06439)
(10.309 0.0916 -0.0360741)
(8.80656 0.900407 0.954762)
(6.60935 -1.97904 -1.00692)
(8.09101 0.778495 -1.89609)
(10.5686 1.72668 0.735929)
(5.52173 1.76258 0.289632)
(4.78044 -0.392846 -3.93703)
(11.9731 1.02097 -0.44901)
(6.51755 -0.239764 -0.813794)
(6.35942 1.79198 -1.52601)
(10.8058 -1.07996 2.11121)
(9.68967 -0.0852648 0.339398)
(9.51543 -3.48059 3.75227)
(7.73393 3.42688 3.25206)
(10.3809 0.391635 -0.27985)
(5.69418 1.45539 0.174192)
(12.3065 -2.07257 3.30112)
(10.4573 0.822594 1.20074)
(9.9606 -1.3239 1.04746)
(10.8968 1.90656 1.30668)
(12.0588 -2.92169 -2.65839)
(9.78176 0.192339 0.75509)
(8.68066 0.340138 -1.53921)
(7.88465 -0.813637 -0.413319)
(7.09676 -1.45048 -2.23628)
(8.72278 -0.228822 0.280254)
(6.45523 0.935364 -0.740213)
(6.71054 0.365837 -0.628389)
(5.41318 -0.0528191 -0.25344)
(8.27814 -2.76919 0.0560956)
(10.9863 -1.44517 -1.16257)
(10.7565 1.47858 0.898426)
(8.12029 0.295049 0.259819)
(10.3494 -0.234688 0.845317)
(4.43861 1.66417 -0.104049)
(8.81138 0.871871 0.005908)
(9.78304 0.0255668 -0.81306)
(9.10398 1.68295 0.650336)
(6.8482 -0.454029 -1.04028)
(11.1167 0.0284293 -0.00451686)
(6.72646 -0.634699 1.93564)
(6.27471 -0.632369 1.96756)
(9.72573 0.0878218 -0.00589037)
(7.24644 1.25752 1.17681)
(7.73155 -0.398817 2.72633)
(6.61539 -0.606625 2.07746)
(7.93853 -1.0663 2.56877)
(7.55373 -0.865001 3.04944)
(9.49739 -0.873322 -0.996344)
(10.2919 2.39527 2.44603)
(8.51079 1.17006 -1.71862)
(7.87899 0.271638 -0.23929)
(6.09192 -0.652294 0.719215)
(3.11927 3.26379 -0.454201)
(10.218 0.662868 0.288012)
(10.7224 0.793033 -3.34487)
(8.68951 -3.97114 1.34312)
(7.60571 1.49301 1.60769)
(6.19204 -2.17006 0.0560564)
(8.18559 0.150405 0.0159452)
(8.1778 0.124043 0.0167137)
(6.34971 -2.30554 1.25137)
(8.55749 1.28479 0.639314)
(8.05797 -2.15114 -2.42177)
(9.04464 0.0131963 0.00243482)
(7.44682 -1.59097 -0.223674)
(6.00525 0.977961 0.687016)
(10.8043 -1.66659 -0.88643)
(10.246 -2.20671 3.16188)
(8.67169 -0.490167 -0.318837)
(7.54909 -0.132923 -1.13529)
(7.47192 0.166681 -1.85668)
(8.18727 0.541316 1.37031)
(10.1415 -2.21633 -3.93534)
(8.81315 0.703924 -1.08571)
(6.86178 0.617363 0.221)
(7.75789 -0.378562 0.0128352)
(8.12587 0.267783 0.237834)
(4.00812 -2.31739 0.0826955)
(3.67197 -2.47384 -0.451861)
(7.5493 1.68493 -0.334043)
(6.68669 0.904379 0.0631517)
(5.55864 3.26089 -0.708366)
(4.96021 2.71044 -1.46498)
(8.57114 0.64717 2.49713)
(12.1938 -1.20137 0.429029)
(8.98842 -0.29274 0.173618)
(9.41591 3.14787 -1.82506)
(11.46 -0.343937 2.12444)
(10.4474 0.269133 0.415957)
(6.83477 1.07913 -0.231398)
(7.84673 0.524462 -1.35532)
(8.00529 0.0595978 -0.673509)
(9.72873 -0.772364 -4.45151)
(4.8309 -0.3904 -0.61801)
(4.7545 -2.34 -0.637612)
(5.96883 -2.02463 -1.70737)
(13.7224 1.28862 2.94724)
(12.7445 -0.314799 2.89499)
(12.441 1.43787 2.63554)
(7.30968 1.22791 -1.52954)
(6.87829 -0.395491 -0.676379)
(5.97087 -1.43835 -1.86026)
(10.6683 -0.317672 0.761078)
(7.54803 0.821255 0.187537)
(8.21736 -2.46439 -0.60515)
(7.95579 -0.80031 -0.443367)
(10.3845 -0.75321 -4.8605)
(6.70715 -1.31261 -2.7034)
(8.92917 0.951231 -4.36051)
(8.90946 0.818946 0.0998679)
(9.08014 0.7031 0.190845)
(7.90353 -0.967737 -1.19633)
(9.29078 1.78414 0.866193)
(9.35902 -0.39225 -0.443914)
(7.92509 0.498246 1.34973)
(10.2549 0.877467 -0.785593)
(7.62084 0.543305 0.122652)
(6.80172 -1.43198 1.40723)
(6.40499 -1.55779 -0.798399)
(12.5385 -0.550487 0.97801)
(9.0539 -0.0337566 0.00186687)
(8.71911 0.211839 1.31321)
(10.037 -0.277107 1.21931)
(9.44636 -0.899822 1.36983)
(11.2336 1.14832 -1.19436)
(9.65822 0.54922 -2.88947)
(8.72923 2.39723 -2.69253)
(8.59879 0.293104 0.230644)
(11.4767 -1.79853 3.85002)
(8.52046 -0.510025 1.92743)
(6.68256 -0.673648 0.179948)
(9.99211 -0.224997 0.365564)
(11.3286 2.37142 1.83992)
(11.5729 0.654964 2.04009)
(9.85142 1.11315 1.50974)
(8.98706 0.527335 0.713471)
(9.00727 0.507668 1.30733)
(9.03691 -1.08405 -3.16345)
(8.89284 1.85896 -0.936794)
(8.2737 1.24705 -1.5677)
(8.9991 -1.69196 -1.45047)
(9.9943 0.0941013 -0.0167538)
(10.9273 0.957145 1.65182)
(6.68312 2.26013 -1.4928)
(7.70139 2.31654 -0.620139)
(9.8125 -0.893664 -0.878213)
(7.55279 -1.95335 -2.29044)
(8.03996 -1.15833 -2.09615)
(10.1212 2.46207 1.1803)
(5.69901 0.134789 -0.755988)
(6.47188 2.00235 -0.349911)
(8.96999 1.18281 -0.250858)
(11.1798 0.737077 1.21203)
(10.0597 -0.0739026 0.0163271)
(9.81235 -4.30608 2.19984)
(9.18115 -3.03597 2.31089)
(11.5748 -1.19764 2.42215)
(7.24845 0.142173 -0.00556659)
(8.39204 0.442988 0.0657954)
(8.77829 0.662308 -1.12733)
(6.41241 0.430172 -1.86294)
(8.15228 -0.603837 0.359715)
(9.86129 -1.1242 1.28808)
(8.71159 -3.84381 0.272349)
(10.6678 -1.66687 0.773944)
(10.7422 0.849352 -4.6814)
(11.1023 2.91068 -3.5758)
(7.36008 -0.160757 -1.01866)
(8.80948 -0.862935 -0.582429)
(10.4514 -1.19777 -1.01282)
(8.32427 -1.80673 1.86927)
(7.98562 -0.993573 1.32441)
(6.81714 1.32112 -1.51247)
(9.07271 1.51111 1.37856)
(9.08756 -0.210846 -0.0986083)
(9.8814 -0.713129 5.90752)
(6.82001 -0.249424 1.52522)
(8.21657 0.0679467 -0.0107736)
(8.48404 0.756182 -0.197204)
(4.87857 0.533615 -2.64878)
(8.91313 0.00527825 -0.00292689)
(8.787 0.0749983 -0.00373035)
(10.6039 -0.845487 0.576425)
(6.42381 1.43966 -0.19036)
(6.12399 0.978952 -1.36373)
(10.2505 -0.000930434 1.7372)
(11.4402 0.0788606 1.6865)
(6.09133 -2.01078 -1.66834)
(6.92873 -0.717631 0.56044)
(7.72842 -0.400277 3.76773)
(8.1489 0.124985 0.0137201)
(6.31747 1.28011 0.873107)
(7.22531 -0.447345 -2.15048)
(5.08385 1.13795 -1.26226)
(11.2983 -0.0249957 -0.0500464)
(7.77235 1.35687 -0.0889749)
(3.54872 -1.7606 0.144186)
(6.7454 -1.66558 -0.16229)
(7.81891 -1.9033 4.56171)
(9.69207 -0.10446 -0.0322325)
(11.2505 0.100894 -0.593329)
(10.9278 0.873282 -1.04277)
(10.1759 -1.37163 0.666873)
(11.0173 -0.402821 0.370741)
(9.62104 -0.791894 0.590687)
(9.37954 0.0525577 0.0279396)
(5.03721 4.50058 -0.42822)
(5.15445 2.5893 -0.201067)
(8.04887 1.85974 0.351219)
(8.47071 -0.201505 0.784845)
(10.8628 1.74564 -2.93829)
(10.1872 -0.22444 0.00560243)
(5.68202 0.750073 0.203988)
(7.69277 -2.11081 0.0471771)
(6.90566 -1.2917 -0.278211)
(10.3935 1.023 0.0867689)
(6.39657 1.61758 -0.364056)
(8.58311 -0.0526688 2.09076)
(6.25186 -0.0303673 -0.454424)
(5.91457 0.237503 -0.600056)
(9.71723 3.1186 2.76529)
(9.92501 1.90866 0.620333)
(9.22222 1.30447 0.541716)
(8.48673 0.0194291 0.0112784)
(8.75194 -0.155459 1.73205)
(9.68555 1.05256 0.101642)
(4.98588 -0.403212 -0.463517)
(10.3884 0.075706 0.21654)
(9.91616 -1.16932 -1.18927)
(8.7558 -0.268264 -1.14759)
(10.9733 -2.33066 0.897324)
(9.80068 -0.307455 0.585964)
(11.8804 1.15129 0.193476)
(8.80709 -0.954921 0.573097)
(7.56624 -1.02946 -0.59798)
(7.1718 -1.2019 -0.569696)
(11.5553 -0.921765 1.23694)
(6.77463 -0.442468 -0.152648)
(7.85909 -0.999855 -1.20325)
(6.26831 1.77489 -0.762479)
(7.43312 0.173754 0.200858)
(8.94307 5.72337 1.29801)
(7.04232 0.271035 1.06917)
(8.62833 0.577598 0.12424)
(6.97231 2.64468 -0.490123)
(5.71028 0.456676 0.543772)
(8.78604 -1.77955 1.18049)
(7.89549 -1.52405 -3.21282)
(11.9257 1.66075 -0.474085)
(6.85261 -0.731121 1.6263)
(7.50325 -0.410741 -3.86698)
(6.5835 -0.384063 -3.15614)
(8.20538 0.477045 0.00750821)
(9.4484 0.0780452 0.00529732)
(10.4711 1.33824 -0.517282)
(7.61858 0.630904 -0.714109)
(7.80707 0.284599 -3.40031)
(8.53066 0.264558 -0.908174)
(12.1755 0.647307 -1.4408)
(8.50159 0.166271 0.0117262)
(11.1005 0.00842272 -0.165292)
(7.79765 0.555068 0.0618755)
(7.95852 0.634474 -1.49482)
(8.56775 2.75198 -0.160584)
(10.6758 -1.31378 -0.634641)
(9.96789 1.83719 0.444206)
(10.0363 0.630668 -0.624322)
(7.40639 -0.826098 -2.71686)
(7.23217 0.6763 0.355365)
(12.1343 0.336884 -0.00121491)
(8.60709 -0.766351 1.09345)
(8.57255 0.261242 -1.47686)
(7.2466 1.46384 -0.112668)
(7.46053 1.00396 0.268367)
(11.8947 2.27798 -0.163122)
(9.23021 0.658443 0.869491)
(8.59563 0.741458 1.25628)
(10.2103 0.644684 1.29239)
(10.8013 -1.80378 1.36289)
(10.7853 -1.93075 1.59416)
(9.92725 -0.0206999 0.371007)
(5.66565 -1.40379 -0.701139)
(8.72775 0.656324 0.181698)
(7.02715 2.38801 -0.610382)
(10.1726 -0.103444 0.954746)
(6.11102 -0.0661798 -1.16945)
(9.25052 -0.538171 -0.730682)
(7.55789 -2.40521 0.144958)
(4.49504 2.34386 -0.540956)
(5.89441 1.55327 -0.449986)
(7.88594 0.0064565 2.67299)
(6.72005 -0.572016 0.466065)
(7.97029 0.450126 -0.776453)
(8.24592 -0.0868235 -0.608207)
(9.32379 1.10562 1.00674)
(10.6289 0.194113 -1.01492)
(7.93205 0.54128 -1.73077)
(7.74976 -2.40339 -2.26825)
(8.03027 0.697262 0.773354)
(7.058 0.424618 -0.637103)
(6.98893 -1.41241 2.24979)
(6.63623 -1.55195 -1.91093)
(9.21694 0.0262848 -1.49258)
(10.1967 1.63204 -1.85897)
(9.15853 0.126603 0.00317778)
(8.96754 0.156313 0.00365374)
(11.4672 0.279033 -0.110121)
(9.42207 0.031367 4.03997)
(8.34962 1.69915 2.4388)
(7.91357 -0.0991897 -0.237681)
(7.54713 -0.720944 -0.287154)
(7.42251 0.230638 -0.351379)
(7.38729 0.229539 -0.449271)
(10.843 1.20725 -0.134217)
(6.13574 -1.77338 -0.607923)
(7.3429 0.750387 0.176804)
(9.01413 1.33655 0.175471)
(8.6854 1.13316 0.0212014)
(6.49597 1.50423 -0.551165)
(10.3044 0.0461461 -0.040233)
(9.34706 2.24345 0.822514)
(10.1392 0.244581 -0.00694641)
(7.91747 0.0783385 -1.00528)
(9.31237 -0.73653 1.53313)
(9.95882 0.173618 -1.69488)
(9.02527 -0.554972 -0.0165347)
(10.2273 -0.832888 3.5107)
(10.1192 -1.82004 4.00538)
(6.83321 -0.101601 0.248918)
(5.2434 0.0420616 0.0228305)
(7.52021 -2.05623 0.367772)
(11.2965 2.00355 -0.880057)
(9.3344 0.122521 0.000665783)
(9.49288 0.0849935 0.00251554)
(9.82449 -0.14632 -0.113192)
(8.91787 -0.291305 -0.344284)
(7.77053 0.359797 -3.86723)
(10.8786 -0.0587627 2.93267)
(10.6783 -0.0712798 3.99328)
(9.9626 1.81648 0.425918)
(7.46386 -0.101457 -2.16522)
(9.2284 -0.969585 -1.99408)
(9.66966 0.0585955 -0.000774986)
(8.99779 0.069598 0.00104714)
(7.82418 0.997263 1.78311)
(10.5619 0.66577 -2.86306)
(9.65295 0.0424906 -0.00635335)
(9.73223 0.129917 -0.0020016)
(4.81629 -3.3247 1.24221)
(6.85689 -2.71651 -0.447157)
(7.22673 -2.28485 -0.523263)
(9.21357 -0.0078496 -0.0129442)
(6.71297 1.62667 -3.57614)
(11.0188 -1.01223 0.678426)
(6.97265 0.257586 -1.10331)
(8.50837 0.816681 0.325883)
(7.88977 0.602174 -0.249505)
(10.0746 2.60196 -1.96071)
(9.86888 0.268775 0.90901)
(7.60536 -1.26052 -2.21128)
(7.44765 1.97623 -0.28545)
(8.54335 1.49163 0.431442)
(9.41307 -1.60808 1.68927)
(9.57931 0.217481 -0.919381)
(8.9147 -3.98542 0.750075)
(9.24634 0.599658 -0.327424)
(8.51941 1.021 0.756957)
(8.60821 0.480532 -0.548458)
(5.2781 1.36872 0.0757248)
(7.85686 1.19465 0.519393)
(10.4043 -0.641222 -1.5478)
(8.47361 -0.0948336 -0.143658)
(11.3219 2.01387 0.322001)
(6.18986 0.786889 -0.685922)
(6.33105 -1.76001 -0.0120301)
(3.5813 -0.497938 -2.54671)
(10.4747 -0.559132 0.224569)
(9.53955 1.01298 0.70146)
(11.5326 0.371598 -1.11721)
(5.79062 1.39502 -0.128588)
(6.51103 0.773627 0.795724)
(6.14863 -1.67969 0.177441)
(6.51003 -2.13999 -0.04545)
(9.7997 -0.319158 0.642904)
(9.09849 0.503987 1.8876)
(6.61805 0.551476 -0.914629)
(6.36302 0.830034 -0.899942)
(7.0345 0.331272 -0.809009)
(9.68077 -0.452176 0.599631)
(10.5367 -0.480434 1.27987)
(6.52512 0.701159 1.01366)
(10.3532 -3.18742 2.04286)
(9.39997 -2.91004 1.9435)
(7.25212 -0.332871 1.70154)
(6.43922 -0.178973 1.35574)
(6.36944 -0.353182 1.82822)
(7.31918 -0.412173 1.94367)
(6.70144 -0.636528 2.83029)
(6.95814 -0.750622 1.93427)
(8.77394 0.787485 0.00742537)
(7.74281 -2.27301 -0.376685)
(7.64232 0.169479 0.00612832)
(8.51222 0.432026 0.698011)
(10.0587 0.6432 -1.2474)
(12.1551 -0.208176 1.75129)
(7.747 1.08012 -2.43686)
(11.265 1.79732 -1.6639)
(6.73615 -0.921375 -0.835891)
(10.1342 0.849805 -2.73011)
(10.4235 -0.151365 -0.382238)
(9.63351 6.03794 2.12054)
(9.87408 1.34129 1.39214)
(11.0636 -0.452723 1.92672)
(5.12923 2.49666 -0.832776)
(6.62614 2.29361 -0.619194)
(7.23849 -0.470205 0.155831)
(8.5668 1.15566 3.69828)
(10.518 -0.233857 -0.423708)
(4.65144 0.75221 0.379649)
(4.68842 1.53047 -1.45993)
(7.68038 -1.19305 0.936096)
(5.41348 0.0874578 0.203326)
(9.85 -1.3347 1.05488)
(11.5178 -2.81075 1.53297)
(8.91228 0.089911 0.0039598)
(9.75829 -1.32414 0.43569)
(10.4984 -0.160699 3.89413)
(10.7773 3.13352 -1.53932)
(11.6499 -1.33086 0.179811)
(8.50059 0.293213 0.00194859)
(8.68647 0.351711 -0.00118466)
(9.84137 -1.2363 -1.55339)
(9.97705 0.0324688 -0.0192176)
(6.9144 0.0381512 -1.40158)
(7.85948 0.173349 -1.05497)
(5.14317 0.491075 -0.260009)
(6.51998 -0.497098 -1.17312)
(11.4896 0.126057 1.1784)
(7.99833 -2.17374 -0.0994809)
(8.10596 -1.66034 0.343839)
(7.78818 0.290515 0.442709)
(7.91554 1.6802 -1.21259)
(8.68001 1.37132 -2.31717)
(8.24752 0.187696 -2.0466)
(7.4637 -1.96955 -2.76114)
(7.8572 -0.0413763 -0.00155609)
(5.54989 0.997632 -0.0962487)
(6.63 -1.14801 -0.397488)
(10.9401 1.55665 -0.376549)
(10.5478 1.54891 -1.508)
(7.23424 -1.7422 -2.58028)
(7.42825 1.0944 -0.395062)
(11.1436 0.00569113 0.0330362)
(10.2578 0.972616 -2.53617)
(10.4198 0.628434 -1.54428)
(8.78049 0.683923 0.00676338)
(9.86892 0.252217 4.8205)
(7.05585 0.99046 -0.49864)
(11.0336 -0.000669468 0.0252599)
(8.62106 1.06587 0.733092)
(8.13702 -0.647649 -1.51108)
(9.29573 0.69139 -1.08833)
(11.3778 0.492922 -0.170011)
(9.01293 0.105262 0.00767397)
(10.7531 0.171826 0.996552)
(9.66132 2.06992 3.14367)
(8.68766 -0.107481 -0.00478451)
(8.7844 1.49381 -2.93698)
(7.57788 -1.28411 -0.718344)
(10.6388 -0.285923 -0.688623)
(8.39042 -0.220504 0.175978)
(11.3728 3.466 0.483655)
(6.81115 -1.85851 2.09165)
(6.33909 -2.30938 0.952989)
(5.80083 -1.13653 1.57593)
(10.5863 0.665805 1.26797)
(10.5205 1.02033 2.31624)
(9.74168 -1.1201 0.238773)
(8.33714 -1.71559 -1.81744)
(7.64372 1.22058 0.282782)
(6.83514 1.50075 -0.345379)
(11.577 0.27051 1.43673)
(9.35613 -0.693582 -1.47696)
(11.4959 -0.113598 0.224374)
(6.83556 0.114495 -0.967704)
(7.95003 0.079036 0.00685845)
(10.7968 0.462621 1.63445)
(10.378 0.21718 1.90005)
(6.79424 0.941449 -3.07395)
(7.92594 0.743441 -2.41373)
(3.88738 1.81808 -2.53101)
(10.8086 0.653201 1.31459)
(9.38266 0.201789 -1.14703)
(5.82869 -0.883254 1.39816)
(8.25216 0.375284 -2.31195)
(7.33462 2.69224 -0.835564)
(6.66143 0.456283 -0.921879)
(7.04275 0.331107 -0.759647)
(6.52909 -0.728595 -0.849916)
(6.57808 -0.228089 -1.0564)
(8.97831 -0.0342302 -0.00192627)
(8.44251 0.616899 -0.517563)
(7.38614 1.79258 -0.247552)
(5.00026 -1.57405 -0.340775)
(7.56422 -1.01688 -2.79032)
(10.8552 -1.06499 -1.9121)
(9.56048 0.139759 0.000130925)
(9.85739 0.0892597 -0.00794459)
(7.02364 0.990443 -0.940705)
(6.38667 2.24334 -1.20012)
(6.35497 0.420092 -0.606019)
(8.3644 6.77953 -0.373102)
(8.63801 -0.281056 -0.368636)
(4.26399 -0.44953 0.0210977)
(8.60714 -1.24524 -0.151904)
(8.6913 -0.249829 -0.675527)
(10.3358 -0.5408 0.859275)
(6.55521 1.99063 2.29547)
(9.36243 -0.100523 -0.248941)
(7.38341 -0.517 -0.891801)
(6.49945 0.82626 0.0954845)
(7.10843 1.1317 -0.339997)
(9.86261 0.803086 -0.0274072)
(11.067 -2.91481 1.78546)
(9.23752 0.0492367 0.00345037)
(8.30134 0.847892 -0.169009)
(5.86241 -0.461255 -1.08008)