/*--------------------------------*- C++ -*----------------------------------*\
| =========                 |                                                 |
| \\      /  F ield         | OpenFOAM: The Open Source CFD Toolbox           |
|  \\    /   O peration     | Version:  2212                                  |
|   \\  /    A nd           | Website:  www.openfoam.com                      |
|    \\/     M anipulation  |                                                 |
\*---------------------------------------------------------------------------*/
FoamFile
{
    version     2.0;
    format      ascii;
    arch        "LSB;label=32;scalar=64";
    class       volScalarField;
    location    "10";
    object      epsilon;
}
// * * * * * * * * * * * * * * * * * * * * * * * * * * * * * * * * * * * * * //

dimensions      [0 2 -3 0 0 0 0];

internalField   nonuniform List<scalar> 
76615
(
976.486
1538.66
2287.04
330.255
1122.93
3668.58
388.72
1377.13
484.827
147.291
2172.99
2058.19
695.856
1957.32
2024.52
346.577
2198.05
247.161
349.302
290.524
406.152
448.366
337.203
527.55
3225.35
632.564
647.366
320.59
351.743
1866.73
2370.65
262.413
3615.02
448.336
252.986
426.367
1143.43
3343.8
1921.5
1078.59
1225.33
1090.72
564.431
446.592
1553.76
3357.55
3696.82
5285.69
6413.53
1801.84
3280.7
754.628
652.155
944.896
5331
706.846
2840.16
5515.24
237.31
677.811
5465.93
5326.48
619.684
534.041
4998.23
250.815
5308.32
1169.7
3654.79
577.137
307.941
356.116
5884.49
496.658
1360.41
181.575
613.988
549.267
536.416
1599.31
411.352
2890.13
813.492
517.136
575.389
424.855
545.961
200.856
5007.86
654.429
906.676
573.237
152.681
2908.04
138.202
1197.7
1168.28
2257.82
221.081
292.347
299.954
509.99
2654.83
768.27
301.864
5654.98
5139.52
3242.7
1068.01
2825.58
691.065
211.554
1030.76
1001.72
3671.14
787.268
3012.47
7099.21
5932.54
247.583
177.343
4654.29
400.349
514.836
4790.5
167.818
274.259
227.253
284.859
1573.62
1451.45
3175.36
258.455
530.57
755.795
5960.96
265.475
309.281
1344.05
254.326
199.771
640.021
201.655
2306.09
285.007
227.208
317.16
6177.53
221.19
323.823
5290.12
479.465
562.99
1080.27
298.13
187.315
354.458
4415.86
6298.63
7819.14
586.571
397.06
728.642
637.94
6506.09
2846.2
4305.43
3229.4
1587.94
590.363
550.544
7083.18
397.952
293.766
4740.24
1611
2640.49
1405.8
1575.57
2896.29
556.084
5092.92
1896.84
317.568
1209
677.747
1248.46
4116.87
3213.75
388.253
583.286
1236.42
169.589
1322.5
5864.98
4700.4
2848.2
4455.12
386.749
1159.28
567.905
768.241
441.219
992.113
892.486
4078.99
4355.1
3850.49
94.1295
85.2272
267.764
210.541
1665.15
554.215
644.016
5692.08
397.814
3057.47
624.253
2627.64
395.606
1868.53
893.344
324.092
5882.83
2808.43
1785.16
3545.66
2186.52
1050.05
1227.25
676.043
6767.5
5010.34
2906.91
1209.9
2997.84
790.704
1081.42
5102.32
919.103
1361.47
2356.28
1502.66
572.961
4565.38
279.561
616.77
895.443
6187.58
6715.1
5847.29
2431.13
4152.68
717.7
1214.74
954.923
1601.98
762.383
617.65
1411.37
2311.31
473.543
452.001
264.322
692.436
447.593
3074.71
305.032
501.793
472.14
528.521
4967.01
1435.04
2057.36
260.462
240.241
3605.98
3906.16
4256.44
4957.68
3502.91
911.607
1023.62
1523.95
834.89
808.626
2813.98
4405.24
3326.83
108.671
3930.45
1423.64
4265.46
5488.65
3626.05
4043.41
352.55
1967.88
2241.78
1926.9
569.064
1240.1
699.216
3266.53
760.333
6804.6
120.294
3407.68
3032.37
854.799
2341.9
2377
1809.9
256.822
6277.19
343.008
1061.02
1918.35
515.719
5045.71
5305.84
1293.14
4514.22
3372.88
4025.02
1070.73
816.351
4960.26
4267.09
5297.07
2996.19
1957.93
332.473
2120.23
2242.59
1515.59
313.851
535.647
2828.79
1884.5
2785.99
458.37
6085.11
709.052
742.267
444.943
555.769
647.888
4012.82
953.726
6138.91
596.306
3574.81
454.723
168.868
801.339
238.289
2816.87
4539.95
4056.35
2941.31
1545.01
465.785
467.992
1799.55
1085.7
111.965
761.568
4074.34
1081.99
199.891
5448.15
4780.37
707.665
2202.56
2229.44
181.719
169.769
881.742
511.21
978.552
350.512
4658.69
2186.07
1539.93
5992.91
500.607
982.172
5331.36
3934.86
374.842
541.221
1959.79
3103.55
1378.22
910.143
815.816
452.159
2061.51
7576.24
458.651
428.498
1568.67
1030.03
1639.14
5506.95
6575.43
2005.24
601.168
528.582
1150.91
597.662
673.181
797.905
726.961
1404.85
381.436
1564.32
1608.93
1529.84
125.803
435.737
1892.7
5278.04
5256.13
1227.49
1879.57
164.459
1964.55
3749.12
1255.2
3512.48
4039.94
3790
4350.03
5950.15
868.95
421.284
915.048
3298.02
4889.33
349.267
752.368
1690.68
444.135
5127.07
5825.71
1643.65
3295.41
3868.44
3041.56
3277.75
5334.18
592.717
430.481
5740.36
135.99
692.726
317.493
227.96
1470.67
628.394
1629.43
129.024
5853.37
231.231
658.502
1969.36
2026.82
4408.9
1074.7
1070.38
879.93
466.28
367.115
402.229
2190.16
603.292
225.248
5896.29
6381.9
5348.93
5951.79
5825.25
973.409
233.623
176.435
185.471
3395.64
5768.92
2802.75
2270.33
4789.94
5483.6
4410.11
2589.95
4570.08
1510.46
1389.06
1710.72
472.874
886.376
677.707
4491.92
1039.29
696.507
3522.47
6347.83
1998.32
334.699
943.336
802.953
1320.42
4385.81
4234.42
5052.34
4267.49
4434.15
4283.64
4766.81
2323.84
2256.55
832.402
939.276
1108.28
938.491
2191.43
1723.57
2268.19
3226.75
441.232
538.041
1314.63
3266.9
3891.1
5119.35
7208.87
2443.35
4843.18
1280.01
2154.13
4779.24
1339.14
1485.87
307.301
170.582
620.731
626.418
419.864
1459.66
1798.97
3383.29
805.015
1930.69
3651.13
290.242
697.604
718.235
6041.57
143.463
5647.58
837.932
863.215
176.115
456.846
4073.65
121.395
6281.4
5663.36
846.652
4089.39
691.133
472.967
347.982
6348.87
4186.29
886.742
1269.93
2845.19
2344.39
7077.41
1107.54
329.262
3349.41
252.333
391.656
1540.21
790.106
117.534
3342.51
3321.89
1308.98
4828.06
906.065
292.729
231.128
1457.86
472.106
1113.76
1418.78
1929.97
679.363
326.845
2277.23
5631.86
2417.56
3720.7
3176.13
5504.68
1108.86
4326.66
248.52
531.38
476.012
4509.03
872.155
242.318
312.392
4343.83
1058.93
1034.32
225.164
7206.25
673.121
1272.89
290.676
597.955
671.921
1145.47
1514.67
1303.48
6019.19
230.178
180.941
2551.35
325.733
2343.55
2458.33
1079.66
1382.22
5670.92
1659.01
4533.62
3981.85
2571.15
185.406
251.575
481.883
1418.1
4929.98
847.45
1192.53
2556.71
1621.14
5937.77
469.21
1134.12
804.18
270.187
1779.38
634.6
1718.01
775.271
1239.31
3907.71
7209.18
7103.35
3708.24
2287.13
273.378
1749.92
663.223
4982.38
4455.95
2334.85
454.246
201.703
1018.47
574.452
4030.95
467.022
541
8043.03
3900.38
3209.1
2459.12
2053.25
946.063
317.736
1906.23
2586.58
5415.33
4248.99
241.32
4783.1
5128.77
4626.54
5150.73
443.366
1787.71
390.734
255.597
359.688
1446.19
586.325
6233.62
761.612
422.679
857.39
588.139
2258.75
1167.99
1145.39
3064.11
894.71
3817.7
1438.17
318.835
540.476
392.4
627.601
1432.47
610.1
652.784
488.025
878.089
2517.32
1564.47
2057.51
4266.23
5005.66
1579.2
1251.19
5965.99
1244.04
217.955
201.802
353.036
3651.99
4285.15
4086.74
515.034
1927.86
373.308
232.542
1298.64
216.525
254.761
4631.65
2389.19
1578.99
5151.98
180.935
1002.31
1130.95
1467.59
1766.05
5191.09
639.045
157.606
1029.49
469.99
644.238
5165.59
4733.47
5856.05
4319.08
7219.07
834.963
167.394
1242.23
4910.65
640.911
543.515
485.813
1055.41
996.298
328.799
1466.08
5387.7
5506.34
5000.54
1338.17
389.88
434.067
432.649
4048.32
6231.91
1411.99
3485.61
790.888
1046.52
6086.94
604.988
1377
6075.48
2945.75
248.656
1136.93
1071.32
1358.85
1183.02
3849.83
628.538
663.831
1130.18
1034.63
633.836
214.168
1789.19
679.534
4143.28
4848.21
3774.08
693.619
1446.69
1133.72
4738.73
3073.83
3309.99
1854.44
3434.61
194.557
1422.54
3052.57
1415.86
565.034
4156.3
3575.92
866.331
5382.49
114.131
947.784
4865.77
2329.56
2198.95
2960.21
4939.6
5235.01
1604.36
766.155
6077.48
5509.88
1100.78
1716.4
1600.13
2734.09
1425.38
1588.54
2371.36
489.762
198.387
2533.39
4478.72
3958.57
2686.64
2185.82
5336.88
213.534
641.21
596.514
1995.71
1229.41
3151.97
4844.67
5740.44
1429.41
1729.01
1556.31
195.586
243.079
6741.19
4380.2
5099.32
4538.09
2667.49
665.281
425.467
2073.51
1871.19
331.2
1303.99
353.328
4313.01
1691.28
532.363
658.574
1072.33
1009.94
2272.15
412.898
717.486
257.892
1883.7
343.233
1935.96
5970.35
754.828
1071.15
336.177
290.685
2776.42
775.363
167.063
1385.42
2855.94
782.219
549.362
249.456
206.983
6064.29
1507.45
231.114
1443.32
1471.64
4771.29
4010.97
1311.82
1835.44
1403.58
5078.1
551.904
181.738
255.628
381.732
419.379
827.88
3803.86
3775.01
1316.02
4928.47
608.514
776.835
847.19
4417.94
4198.72
4180.79
3370
4943.51
2209.23
1846.49
1733.31
3490.45
4847.84
4362.23
3141.52
946.102
6211.65
337.892
385.386
5573.91
649.638
735.515
2046.67
550.051
675.902
1744.26
1606.77
334.783
1081.16
612.668
4878.28
3430.26
1049.62
606.334
1383.58
195.07
5624.9
5534.06
1863.66
210.593
633.618
5770.45
129.604
3009.77
384.579
402.952
1538.2
992.023
2418.27
2324.31
3973.04
4804.33
4716.38
1729.47
1619.32
2334.48
710.348
2431.19
2513.95
3606.77
3080.61
1769.94
1105.17
1366.04
1990.08
6061.78
127.927
2171
6271.35
1396.21
1616.23
4666.93
4938.16
4749.07
5052.2
4773.45
3801.59
3958.18
642.634
644.139
363.133
191.995
2859.61
1916.53
218.188
5580.12
401
5357.38
4244.89
482.166
179.994
5143.69
1892.94
4379.83
4203.41
5624.98
2459.45
819.806
822.669
620.574
132.929
1028.68
549.006
2692.18
167.906
494.231
681.187
4511.09
237.673
613.988
911.494
4770.9
1482.77
4354.55
2402.73
805.238
4299.92
841.708
1826.54
426.365
2532.42
326.553
386.573
1188.66
1602.09
2112.23
4651.5
1939.94
4612.27
827.701
359.38
3793.7
2675.15
5165.49
1402.65
893.885
1711.91
872.83
5053.6
473.186
1959.03
3795.11
168.712
1569.79
496.52
1494.75
1663.42
434.147
162.351
480.689
1242.99
808.652
2495.26
220.507
2021.44
2414.86
304.336
330.803
908.067
745.896
658.571
475.448
4493.72
426.133
2749.47
596.962
1617.79
3762.47
2648.38
4318.85
408.203
2771.18
1070.87
754.289
2487.85
2817.89
2510.24
2775.63
2465.17
1901.07
1947.37
1980.37
519.032
472.42
231.973
2953.2
278.185
751.911
4604.48
4120
1702.07
487.643
1558.97
1116.49
794.407
347.952
7112.67
1184
1875.87
241.659
6041.6
3753.24
1305.33
4604.57
3871.64
1525.92
1216.82
1116.76
228.138
562.819
4080.74
202.555
426.041
3798.21
853.42
4946.86
5614.34
2373.23
2091.36
266.012
760.191
1676.65
2157.76
3299.66
573.821
703.464
1948.3
1108.57
893.317
4097.02
5500.73
5498.66
1084.46
171.21
3094.45
806.033
4796.7
4957.53
3263.28
2870.39
843.572
3547.26
711.781
884.471
2020.22
583.498
3074.82
4256.72
702.759
1123.31
1382.22
5715.96
1568.99
961.697
1652.13
311.199
2303.97
4429.19
5298.65
1260.6
1357.18
366.984
1931.18
6249.42
1019.38
1901.9
179.998
1772.5
251.327
3696.97
5459.59
1171.56
1720.17
4004.83
319.135
740.708
3412.19
378.011
234.462
3733.06
1786.45
3841.82
3295.53
3567.46
2977.97
2115.27
4461.7
891.121
870.569
993.71
6035.45
1301.54
1131.37
1765.27
825.245
682.685
3363.83
5839.65
3914.5
4825.54
3387.42
3325.19
5519.15
822.414
4879.36
236.396
5939.03
524.003
1764.29
4741.99
2037.88
5218.46
5671.04
439.448
4506.25
584.21
641.459
1531.36
5120.86
1824.24
1110.27
1357.84
3189.62
1425.28
779.516
358.26
785.721
5772.75
1289.92
1552.88
1515.18
228.139
973.102
527.371
1958.27
1191.66
337.895
1827.46
1188.35
5974.71
4303.35
3943.68
2306.81
2258.75
566.071
1635.3
4919.91
3891.31
5129.83
4658.07
915.284
2530.06
600.593
4785.69
2014.45
5773.89
3533.96
1052.46
691.251
2168.26
3243.02
238.009
291.053
267.128
764.64
611.565
206.301
5951.65
5321.04
2575.08
1864.22
4657.9
720.865
4052
1257.21
1573.7
416.123
2700.59
1370.76
2492.63
503.071
541.807
3931.3
2708.3
1045.62
597.137
3898.96
1899.93
627.521
6218.12
3163.46
2350.89
1763.36
3042.73
3488.26
403.347
963.471
4493.28
2413.9
4288.44
3315.12
499.353
3976.99
3565.23
578.223
4672.68
2024.2
2920.64
3804.6
1643.98
3771.24
3528.24
642.846
268.955
4431.19
2656.57
1513.07
2495.38
2156.72
2670.84
5212.58
5293.42
948.291
7124.09
1182.97
1073.59
1419.03
3300.92
3047.49
3596.78
1341.11
136.613
2671.24
3460.42
449.72
416.823
3115.77
5054.95
1691.88
1682.02
1703.34
3021.9
1182.53
2853.9
1391.64
3362.76
760.171
1343.03
1259.43
6163.65
3253.05
1715.14
2899.93
808.716
958.037
1461.34
2946.54
354.695
4828.42
1534.29
1249.39
4958.26
5638.96
2789.81
3101.19
3504.33
6783.03
1030.51
1966.21
1123.83
3173.15
615.178
1093.55
1532.41
1082.57
6888.42
3217.53
482.243
3350.8
5366.87
1106.78
933.184
731.507
2885.97
2666
715.433
2779.54
1487.42
5963.49
412.51
402.654
1222.34
1158.62
1087.27
605.281
605.505
592.933
521.82
519.973
1561.45
2253.38
539.761
2860.32
1621.25
4162.34
967.623
4865.4
917.703
1264.76
101.183
2346.04
4182.47
3618.04
490.64
3392.27
271.257
807.596
2508.12
4097.73
5254.44
3741.64
4043
896.855
1752.34
1397.78
3309.55
1326.47
1239.72
1404.73
3763.17
1194.99
1937.02
1175.14
2405.18
4820.8
5798.73
2437.75
1577.53
319.78
4088.48
2137.43
6207.88
2645.29
1552.59
196.327
4365.65
2757.25
1271.08
2064.03
2020.78
1874.9
1977.28
1332.26
2371.38
368.971
224.935
251.117
612.111
1241.27
4459.72
229.33
3592.35
1316.68
586.997
420.107
696.592
1203.5
5278.15
1302.78
1114.54
3587.73
506.77
4012.64
840.063
1095.87
3931.48
1395.42
429.621
1216.06
3014.2
2125.07
7230.52
2548.03
3806.94
4395.87
4638.19
226.28
270.435
4216.18
5197.21
1603.18
4012.65
423.74
625.295
2242.93
3572.44
4848.35
2620.84
1105.3
1651.93
2287.25
1604.79
1379.54
1327.5
1387.46
1956.02
2210.09
1757.37
3706.15
3052.04
2794.06
3427.22
1253.94
785.324
4151.09
549.44
757.687
3129.17
1885.47
2042.37
1556.99
2525.71
6030.24
4694.53
1623.11
304.691
227.709
3639.91
1471.67
3361.76
2015.51
1144.01
1525.17
2120.36
3770.7
2275.38
2418.57
3651.81
685.125
3515.27
3005.62
838.97
2376.17
1187.79
1097.63
713.103
4822.64
1011.99
1971.26
1663.18
2142.83
4112.19
5167.75
3685.57
226.262
276.671
1752.06
3730.14
1861.12
1392.83
1494.65
1232.63
2804.54
1077.82
1585.05
1363.39
274.623
5664.67
5325.32
423.552
4217.37
1186.81
5878.03
1265.73
2425.11
4149.02
3167.72
4547.07
367.316
1385.15
488.134
3121.47
2037.6
5516.55
2883.5
3165.34
2906.3
3321.97
2505.84
167.834
251.723
494.434
354.858
4740.82
784.127
3135.64
1047.28
5314.51
1146.43
2055.84
121.524
1297.71
1057.52
4119.99
4413.88
3082.55
4728.6
4721.27
283.531
1713.46
182.745
188.141
4533.37
927.041
2165.18
1092.74
1574.9
205.119
517.656
4887.04
5987.17
875.77
2283.25
3346.23
1580.27
4752.12
5812.73
1216.66
6648.53
187.836
163.006
784.05
881.618
2224.04
434.354
156.229
376.752
4891.2
786.989
716.083
914.818
826.975
3717.78
3405.51
5284.05
2589.78
3539.41
1337.86
3331.87
3570.38
613.389
1834.61
183.915
376.89
2645.65
2376.93
1475.14
6517.92
5431.52
6448.96
4918.92
1638.85
3157.41
3867.29
1207.35
4788.04
500.952
616.805
3492.2
694.642
1703.6
2049.56
4921.28
1119.57
6379.99
574.318
591.613
2771.5
2047.16
966.367
2544.23
1934.04
622.427
546.687
374.284
342.38
3361.39
601.143
519.153
1172.98
1257.25
1544.17
2111.13
1236.63
1285.69
133.257
567.39
355.564
5909.94
2120.66
4569
4026.25
2185.81
1444.99
1757.15
841.506
916.736
1833.11
937.377
158.919
1893.34
1539.75
2465.53
1413.53
2998.9
325.77
2257.33
2150.36
2005.65
3259.05
3125.73
3878.93
1815.08
958.789
5212.11
5435.19
6110.25
5879.06
730.583
1384.96
1027.46
1240.58
1269.17
559.326
602.11
1830.32
3450.64
605.238
591.303
127.405
3987.25
2017.4
3432.91
1048.53
373.607
383.074
573.268
1097.13
1431.22
2160.34
4263.57
221.268
251.381
739.679
3823.58
1894.62
1415.04
2398.36
966.84
527.391
339.676
2046.07
5005.51
2618.16
797.634
726.967
724.311
3286.3
3843.83
991.124
391.847
5043.78
3142.35
1431.26
2376.79
4483.82
3699.32
579.846
640.098
2653.68
4752.56
1724.54
425.507
1689.1
1900.03
2012.46
1383.4
1603.96
845.277
5018.2
5634.84
4570.68
621.649
521.675
963.04
905.17
849.575
964.407
4546.18
1520.9
1636.05
968.153
5081.51
1307.29
1243.89
89.4843
1034.27
2159.47
1602.07
278.412
342.467
1153.99
186.139
229.599
2346.07
1761.99
3665.36
844.286
2865.35
2975.23
795.109
836.142
2723.81
2864.51
3311.67
998.708
450.905
3234.1
1470.21
5186.59
1353.45
3494.22
1947.68
1844.41
3184.47
2927.73
3674.31
5679.68
1037.27
2690.99
2650.36
1426.24
2406.81
1998.25
1165.69
3896.72
1398.54
2301.5
840.999
1169.98
1390.54
7499.72
858.006
1112.21
4819.73
1522.79
1416.49
3502.18
2473.71
542.262
718.339
1192.86
955.043
1322.17
911.765
291.213
686.441
959.199
1855.4
5639.83
887.541
765.348
4721.53
1300.97
245.726
220.122
1365.03
112.349
115.311
4760.42
240.89
253.431
833.204
4097.53
747.366
326.894
411.572
2237.53
2473.61
471.973
310.616
3036.31
233.772
347.52
1691.94
583.997
205.023
233.597
2850.46
341.866
300.516
931.133
5693.26
5235.75
310.291
326.116
4674.82
1885.99
393.927
622.77
4480.65
888.308
2294.6
848.705
3791.96
3332.39
4321.93
3363.59
2869.38
939.586
5721.35
2913.88
2428.4
2980.08
1216.35
961.909
1579.08
3257.3
2933.23
2249.38
1415.64
1981.64
2948.02
4054.87
3612.16
2310.57
1148.11
3107.32
2969.77
1323.79
548.491
6707.12
5015.57
1175.07
1406
3077.55
2827.85
3030.04
2989.69
4281.47
2086.88
1341.67
741.963
2506.5
3996.45
437.135
613.114
815.982
2288.72
385.134
517.851
5547.98
905.075
1143.19
3106.78
2001.64
1500.17
401.321
319.495
3872.35
2138.89
2059.3
1799.07
324.049
299.743
3309.82
2339.39
2515.19
4075.12
1371.16
3657.54
1479.2
1104.03
818.905
1517.11
5995.67
6451.38
1332.5
2430.79
5382.22
2082.86
2780.23
1497.08
3373.37
3060.23
2645.07
948.876
4650.7
4124.14
687.528
428.595
676.774
1878
998.655
3023.69
3464.81
3842.67
2638.13
543.17
1670.21
880.178
778.564
1162.27
3295.19
2684.68
175.498
1066.53
593.403
1050.93
1385.11
767.012
181.419
1081.57
1779.05
1806.27
520.728
3549.45
554.687
2873.46
1141.87
956.045
523.443
1316.86
4006.25
1874.02
3470.04
318.609
244.719
3279.44
3175.83
3393.23
2257.15
2120.11
478.069
3881.49
4676.48
3520.25
546.573
2476.87
2132.12
4713.81
1054.63
3939.18
3814.84
2445.71
553.787
586.067
300.82
1849.31
1173.99
1540.84
612.913
931.253
1824.82
3588.15
3375.41
1817.18
7571.22
4151.03
910.154
824.926
3522.83
2808.37
1378.37
784.708
1742.04
3410.13
2128.15
6393.55
5664.48
5617.62
1614.88
1262.35
4847.67
4711.13
3053.53
1306.87
3372.78
2522.44
2913.56
490.215
2497.62
2018.7
517.809
831.824
3757.03
3631.92
2266.26
1535.8
814.394
2061.3
961.574
587.557
9625.2
1958.22
1180.8
958.127
1601.06
2269.45
4621.41
425.089
1823.57
4874.78
3109.26
1370.52
925.397
654.016
996.225
2072.33
2803.92
2186.51
557.151
591.31
3055.87
722.789
2400.31
439.336
361.634
1738.27
2196.28
2396.31
1164.31
2481.14
2847.39
2208.36
1369.12
2630.26
2920.11
466.326
829.884
843.92
1787.9
895.423
3154.01
522.049
2625.31
2762.4
2010.04
1686.94
919.382
672.813
962.824
1034.7
2258.34
1660.69
1082.14
1300.94
483.64
799.564
953.062
252.947
669.507
2049.57
317.671
1162.81
278.066
189.985
1977.91
1069.87
800.297
821.439
801.965
234.375
1130.8
156.844
290.275
193.574
316.182
277.551
220.272
302.419
1105.93
295.767
302.732
184.08
120.423
729.038
1170.76
180.465
1143.97
287.43
154.867
216.306
516.857
1497.38
538.987
559.889
538.548
677.749
358.171
263.168
1062.11
1134.1
1337.77
2991.61
2339.5
936.828
1237.71
335.734
417.756
549.407
2017.71
424.207
1058.03
2566.26
164.033
368.639
2027.8
2241.02
285.076
273.934
2012.87
167.038
2118.55
840.976
1960.24
308.271
189.645
174.067
2882.74
377.588
743.576
172.186
291.652
302.164
272.308
731.987
254.207
1030.69
357.637
245.277
368.677
359.188
275.545
147.464
2568.17
351.504
453.27
425.276
135.067
1282.37
111.621
646.851
481.141
981.099
148.912
169.246
138.86
335.807
1495.97
511.82
154.12
1265.53
2404.04
1022.52
520.232
1508.07
351.292
150.905
545.183
661.678
1053.01
289.131
1311.94
2500.85
3211.16
114.803
243.438
1948.23
301.393
333.8
1771.51
144.279
150.844
65.0534
69.5098
1042.02
918.688
1633.42
200.467
321.744
368.314
2337.2
117.224
319.099
654.788
231.044
201.955
307.596
132.426
806.502
108.448
102.066
252.236
1711.07
208.641
271.857
1856.66
231.679
234.469
503.237
194.464
209.448
206.652
1851.6
2470.18
3074.59
263.731
223.507
361.032
375.98
2507.8
1173.42
2538.5
1479.78
801.699
315.996
260.444
2277.81
185.121
121.211
1899.72
958.643
1054.78
601.811
837.442
1245.97
318.108
2250.37
952.915
134.991
536.024
297.627
727.984
1606.17
1403.78
234.281
216.897
719.097
99.7723
480.355
2225.25
1784.4
1384.87
1634.6
119.619
358.123
252.372
377.124
338.384
573.508
529.011
2036.63
1819.78
2003.58
130.126
71.7969
195.281
228.27
880.165
316.68
333.297
2518.03
177.055
1640.28
314.484
1057.4
395.275
774.568
426.923
149.452
2130.52
890.033
610.669
1946.49
816.464
383.935
389.335
518.323
2386.01
1908.71
1787.49
388.353
1684.56
299.675
627.748
1984.67
491.063
528.935
932.81
877.828
278.621
1970.23
212.468
291.09
462.234
2950.22
2788.77
2827.68
936.319
2456.57
393.773
473.737
520.629
1149.09
436.946
308.939
921.932
861.021
212.605
284.696
116.037
490.865
194.509
1218.83
139.459
314.766
185.873
223.788
2059.99
1687.85
971.368
106.176
224.381
1762.67
1279.61
1219.1
2221.01
1764.21
557.732
576.438
701.623
408.553
388.705
1319.39
1847.11
1128.45
95.9879
1439.53
812.834
1738.25
2041.87
1835.3
1382.45
232.267
938.116
955.133
1003.27
227.419
744.074
422.39
1409.25
639.195
2261.76
138.004
1630.31
1593.64
379.17
1049.74
910.569
1060
249.71
3040.66
207.583
476.794
511.522
253.869
2202.66
2606.99
578.286
1796.77
1440.61
1756.03
625.38
455.816
1897.15
1799.38
2497
1399.88
1037.42
215.866
842.015
860.549
826.956
175.725
384.24
1185.13
825.113
982.254
234.646
1680.01
438.954
361.263
153.834
309.815
265.039
2048.79
572.995
3174.7
365.029
1726.14
168.009
102.611
462.578
127.022
1124.65
1491.4
1419.48
1442.41
693.938
308.928
180.887
788.216
450.432
91.6496
349.237
2489.98
565.602
294.56
2016.73
1669.53
507.948
1184.83
974.798
198.921
99.6327
520.191
253.044
829.863
248.924
1571.45
1236.37
700.13
1896.33
392.312
356.344
2002.72
1422.07
271.5
317.351
984.58
1790.33
781.758
544.838
432.459
239.578
991.247
3775.7
266.67
203.32
923.54
525.623
784.643
2072.37
1940.51
575.256
280.947
293.92
453.47
464.24
340.6
351.083
396.189
658.305
196.559
623.856
677.296
796.259
155.686
253.438
697.475
3141.61
2868.11
694.273
1180.09
178.283
768.828
1518.32
638.574
1362.67
1941.22
2164.98
1463.71
1658.26
415.708
125.651
329.739
1807.8
2327.14
214.371
479.518
646.29
320.616
2724.8
2637.81
825.855
1441.52
2559.23
1238.78
1230.34
1841.79
278.642
214.718
2587.05
75.2871
377.449
203.329
149.584
709.938
336.854
837.125
154.277
1880.37
156.396
496.4
997.157
772.532
1386.35
688.976
532.66
384.758
310.235
288.807
274.839
1773.15
325.254
184.421
3003.08
3199.02
2980.1
3141.1
2517.55
306.624
93.0106
95.7771
78.8429
1222.57
1725.46
1278.41
1444.37
1915.39
2561.96
1527.01
987.321
1539.39
1094.78
832.956
1173.33
319.715
423.704
407.912
2433.24
1003.63
398.373
867.627
3409.67
1055.59
203.941
424.217
469.187
533.911
1622.37
1479.1
2178.41
1742.98
1691.82
1960.4
1337.84
1069.53
1345.94
408.548
409.719
489.422
542.162
994.204
841.864
1189.03
1756.33
293.518
321.908
704.893
1468.06
1639.54
1810.45
3175.36
1284.77
1962.52
724.763
944.888
1728.09
733.31
884.042
202.558
105.034
271.733
235.767
213.119
728.031
1087.18
1609.26
471.514
887.46
1670.67
125.363
358.133
432.213
2514.81
155.537
2698.48
330.444
313.747
98.3882
205.684
1670.34
84.9837
2963.77
2837.32
481.634
1812.4
289.335
249.093
99.3559
2619.02
1630.15
296.148
799.007
1504.45
910.687
2895.29
522.587
162.028
1363.66
149.005
231.168
763.122
350.028
104.252
1987.16
1342.53
872.199
2676.13
253.308
187.09
161.429
1030
391.789
518.104
527.151
1107.26
399.73
266.748
963.542
1660.36
855.277
1238.36
1182.64
2313.32
1098.28
1945.5
157.56
278.591
191.878
1702.42
532.791
151.35
179.866
2292.21
387.636
571.227
140.395
2535.32
496.744
754.273
219.592
247.732
371.873
641.09
914.508
830.916
3202.81
132.179
124.701
1075.46
213.619
748.937
740.874
680.721
529.034
2384.04
895.597
1497.58
1423.11
711.635
123.243
157.958
281.043
624.079
2603.44
369.592
515.84
1435.58
721.123
3878.97
293.126
610.1
476.919
149.554
649.117
427.39
822.397
359.007
458.279
2036.98
3009.86
2457.14
1788.66
1495.8
218.447
548.565
502.176
2112.55
2075.42
1215.5
243.673
197.761
532.892
304.514
2535.46
316.646
240.764
3572.29
1305.67
1528.73
1336.91
941.684
412.353
242.698
1273.11
1268.23
1549.38
1527.91
228.36
1797.64
2399.85
1982.38
1945.01
239.907
1062.07
243.573
145.882
134.318
747.463
247.559
3353.76
402.53
206.381
358.175
316.76
1011.14
400.716
573.425
1090.75
474.201
1692.03
570.706
319.487
334.008
353.36
401.618
731.928
319.096
272.87
373.999
403.223
996.362
764.446
810.27
2009.82
2412.53
879.641
639.746
2205.88
546.721
197.376
126.883
238.416
1298.47
1316.59
2144.11
264.979
1079.55
206.59
195.147
645.485
150.311
121.683
2794.48
1069.88
897.162
2395.28
156.848
536.7
620.083
599.568
1120.37
2231.13
290.595
84.0212
513.728
328.586
334.075
1888.13
1924.5
3758.43
2578.22
3001.59
472.36
101.384
726.742
1946.05
284.121
267.999
236.08
566.536
434.405
347.43
561.784
2414.81
1972.4
1923.1
833.951
353.17
229.215
329.974
1791.53
3355.04
1065.33
1684.87
469.687
516.78
2842.4
242.323
631.301
2362.55
1126.49
228.971
533.051
449.474
745.422
538.015
1823.06
393.111
272.45
473.004
446.509
290.645
169.988
613.587
406.451
2003.12
1932.71
1400.37
346.818
808.677
509.102
1688.93
937.277
1518.08
809.477
1875.3
127.114
715.1
1400.19
772.942
329.936
1382.38
1796.47
472.063
1955.93
114.283
302.2
1669.83
1172.08
1076.65
1693.43
1365.03
2097.27
782.901
493.79
2183.72
2552.49
714.337
581.885
847.583
1365.69
855.928
544.787
868.284
431.822
80.4024
919.974
1999.26
1596.45
1011.24
714.121
1988
149.753
302.062
341.932
784.987
540.417
1473.01
2009.8
2052.79
628.754
1415.47
591.716
132.005
102.809
3216.04
1354.18
1865.75
2153.81
1078.95
446.926
185.039
989.739
975.243
174.566
642.759
150.722
1895.27
567.358
306.269
330.759
420.692
362.383
1204.23
306.592
371.129
180.487
1048.21
205.337
1450.66
2281.04
388.888
412.332
203.958
169.755
993.237
400.029
83.047
1361.18
1138.46
468.491
323.949
79.4936
93.7045
2690
689.129
162.488
814.806
664.24
2571.89
2061.43
697.856
939.321
601.473
2115.23
200.999
112.048
188.83
253.694
203.426
454.718
1899.76
1441.2
804.337
2005.39
319.244
504.465
540.708
2019.85
1763.28
1542.51
1643.32
1351.83
1129.64
810.074
972.026
1668.13
1947.66
2429.87
997.447
528.581
1740.35
176.732
173.553
2679.07
312.978
328.54
869.723
299.744
293.986
943.064
879.38
171.399
392.512
409.179
2541.27
1525.49
457.958
344.986
622.159
137.909
2972.81
2734.33
910.658
105.693
274.886
2392.58
112.224
1583.28
287.26
248.98
620.193
530.388
1243.03
1262
1853.55
1904.17
2810.38
1790.75
810.292
678.937
298.536
1370.17
1393.27
1894.14
1138.87
999.977
637.837
808.416
1136.36
3354.91
166.702
1100.99
2892.58
510.963
679.977
1620.48
1903.82
1803.3
1749.67
1890.93
1788.78
2381.93
390.508
378.691
289.214
74.0157
1374.55
946.25
169.043
1612.31
187.014
1708.69
1963.25
284.14
107.403
2089.66
935.185
1505.18
1455.84
3160.7
780.746
370.785
493.846
359.706
87.6817
499.403
349.109
1375.25
93.3502
260.854
461.516
2664.93
172.496
337.5
411.264
1985.89
694.412
2115.88
1054.6
492.408
1704.92
471.562
673.604
179.8
1343.53
224.675
241.101
670.513
851.485
899.755
1745.02
1064.53
1794.3
837.906
151.231
2023.24
1218.92
2126.54
872.722
506.952
1009.34
481.14
2398.75
334.697
804.369
1652.1
100.1
753.213
340.153
986.302
870.887
239.902
113.733
237.422
743.836
383.823
1286.84
105.42
768.827
1435.34
165.565
176.422
479.319
332.424
347.681
216.515
1822.24
217.332
1099.73
294.21
919.905
1714.3
1351.48
1812.62
258.554
1565.81
535.378
417.386
1348.77
991.902
1229.81
1177.29
1209.32
710.886
710.455
1142.27
194.135
192.801
193.612
1342.56
156.748
283.96
2123.28
2381.87
962.661
228.721
667.115
601.112
215.684
132.873
2562.25
557.789
991.54
77.7658
2941.35
1922.46
501.622
1790.55
1649.33
882.305
890.435
442.792
188.695
310.38
1679.99
161.618
235.511
1650.4
607.248
2369.68
2251.8
944.367
835.383
180.061
478.684
1234.36
995.062
1075.1
342.151
328.228
967.64
483.142
363.915
2392.42
2597.66
2127.92
390.463
107.612
905.615
449.003
1660.42
1945.67
1478.65
1263.1
431.237
1511.52
356.999
543.063
886.717
274.732
1521.76
1884.69
448.827
842.421
618.04
2517.4
697.281
463.75
659.553
163.855
719.549
2058.29
2006.07
853.703
730.085
156.648
874.154
3282.9
506.268
1021.04
98.9673
543.197
175.517
1299.09
2864.34
492.862
1178.47
1529.67
308.109
549.676
1524.96
247.651
96.9861
2093.9
1118.79
1463.87
2071.64
1952.67
1689.96
855.539
1730.45
432.452
523.084
346.583
2316.68
864.368
437.73
767.781
386.683
330.624
1928.62
4173.84
1634.99
2079.7
1128.63
1368.14
3142.36
612.08
2812.13
129.056
4426.45
448.862
727.284
1654.36
908.577
1707.69
2254.12
287.431
1973.95
371.419
441.336
818.345
2393.78
1224.97
437.394
895.35
1191.49
769.458
581.476
192.747
457.598
2921.04
472.634
746.876
723.072
178.656
441.047
476.643
795.543
463.246
189.437
807.981
656.621
2983.78
1953.91
1989.98
987.665
1017.64
321.439
811.618
1633.78
1765.46
2302.78
1972.5
484.565
1193.78
301.925
1860.12
1119.28
3073.33
1069.15
583.891
424.052
560.555
1340.03
140.409
168.875
169.325
414.711
360.308
183.701
2673.21
2681.34
856.636
642.679
1496.56
378.078
2262.48
434.12
895.845
216.189
885.466
826.172
933.875
537.465
357.059
1733.33
1502.25
451.729
371.123
1368.33
859.083
302.368
4238.76
1412.95
1655.56
1660.15
1538.36
1355.76
236.793
517.27
1995.01
880.791
1558.82
1491.24
181.488
1335.3
1401.45
342.691
2098.02
849.7
832.928
1184
726.983
1926.37
1609.75
359.373
182.256
1681.17
1049.9
886.353
1114.77
1287.56
1043.28
2111.69
2323.44
751.97
2587.89
912.397
725.227
821.979
1115.25
906.523
1332.5
537.864
90.2329
1141.33
1424.63
219.901
283.166
1232.55
1711.09
865.282
746.791
642.995
1132.58
522.648
1300.87
434.98
1279.44
555.799
677.12
392.56
2174.55
1540.95
506.497
997.799
446.738
458.245
683.828
1372.82
302.897
1657.44
592.41
730.872
1877.16
3362.43
1195.29
1204.15
1214.64
3168.46
391.535
798.299
761.755
1086.99
352.407
605.333
656.208
653.506
2760.75
1065.84
209.613
1568.64
3244.83
437.634
353.399
429.28
1532.87
1038.26
413.665
1629.41
1145.09
2932.36
148.225
260.898
582.798
742.65
570.703
227.475
274.945
281.624
328.219
373.972
869.779
840.68
297.357
1525.73
531.736
1870.6
528.244
2289.28
469.971
963.629
105.343
741.247
2300.62
2041.12
215.033
1477.13
153.82
522.644
941.084
2011.6
2080.81
1575.98
1842.48
541.858
632.425
596.821
1102.44
537.567
772.414
652.298
1422.43
617.1
632.661
467.086
1037.55
2124.5
2266.95
715.493
467.512
106.217
1140.69
799.274
2206.21
888.552
939.035
66.216
1725.1
1128
416.971
677.507
877.645
855.611
629.97
498.742
1114.02
204.807
145.123
89.0304
378.534
479.072
2235.26
128.794
1898.55
592.614
365.988
228.625
345.593
632.582
4116.43
563.042
630.126
1970.48
471.389