/*--------------------------------*- C++ -*----------------------------------*\
| =========                 |                                                 |
| \\      /  F ield         | OpenFOAM: The Open Source CFD Toolbox           |
|  \\    /   O peration     | Version:  2212                                  |
|   \\  /    A nd           | Website:  www.openfoam.com                      |
|    \\/     M anipulation  |                                                 |
\*---------------------------------------------------------------------------*/
FoamFile
{
    version     2.0;
    format      ascii;
    arch        "LSB;label=32;scalar=64";
    class       volScalarField;
    location    "10";
    object      k;
}
// * * * * * * * * * * * * * * * * * * * * * * * * * * * * * * * * * * * * * //

dimensions      [0 2 -2 0 0 0 0];

internalField   nonuniform List<scalar> 
76615
(
3.87805
3.9342
5.27361
2.29686
3.47603
7.17375
2.29862
4.72634
2.90005
1.47819
6.86914
4.66879
3.48026
5.04511
4.97911
1.88308
4.49331
1.69482
2.29826
1.38187
2.59788
3.19782
2.60623
3.01639
6.13633
3.12582
3.07298
2.18985
2.31928
4.72396
4.94894
1.30958
8.16369
2.29065
2.05952
2.73979
3.40686
7.56905
4.59249
2.75731
3.05409
3.22884
2.46445
2.95009
4.49314
6.82825
7.33586
8.59901
10.3408
5.6854
6.62704
2.82599
3.17882
3.66074
9.06406
3.06878
6.72494
9.16757
1.8715
2.37502
10.1419
9.20569
3.20695
2.60446
8.58197
1.97151
8.63394
3.53966
6.91543
3.19291
1.90882
2.58955
8.46801
2.57753
4.20633
2.0936
3.62199
3.17841
3.22398
4.23529
2.13834
6.85622
3.53982
2.7184
2.57894
2.53436
2.92988
1.73338
8.82572
3.13153
3.52809
2.07031
1.21937
6.99631
1.51523
3.75179
3.87549
6.03505
1.46134
1.92022
2.15471
1.97826
6.52535
2.78108
1.98135
10.7891
9.40551
7.35022
4.17989
7.10152
3.07508
1.70766
2.99519
2.99499
7.00595
3.37693
5.61332
11.5615
8.70337
1.68283
1.53445
8.32265
2.22687
2.29234
8.71325
1.54573
1.74817
1.434
1.66755
4.05636
3.83125
5.87835
1.79536
3.0412
3.42003
10.0767
1.6592
2.33284
4.87099
1.50218
1.80078
3.41279
1.7613
4.8503
1.7472
1.76499
2.16247
10.7824
2.18432
2.48404
9.58052
2.896
3.09592
3.85681
1.69434
1.70041
2.31092
8.18146
10.7914
11.8255
3.11372
2.69141
4.1517
3.52094
10.6568
7.02787
7.98795
6.17184
4.51222
2.78188
3.40269
11.3224
2.30334
1.85854
8.36736
4.73284
5.59861
4.37258
4.50518
7.00729
3.2316
8.46933
4.64623
2.13836
3.65761
3.01969
4.53861
7.37847
7.62573
2.02443
2.80946
3.55615
1.3568
4.08023
9.7871
8.38056
6.69514
7.77486
2.14296
3.27391
2.80745
3.02514
2.19627
2.76008
2.55839
8.09812
7.65371
8.03536
1.14338
0.914989
2.14347
1.87151
5.46325
2.97083
3.14597
9.47448
2.11881
7.39457
2.88235
5.73586
1.71967
5.11424
3.32293
1.96968
10.1662
5.63536
4.8574
7.11529
4.70926
3.0985
3.42956
2.80237
8.63671
8.38224
5.43102
3.41754
7.12912
3.06678
2.84275
8.77287
4.97916
3.84192
5.97502
4.46344
2.70449
8.1398
2.13585
2.50336
3.46492
9.87926
10.2428
9.65055
5.67131
7.46827
2.50804
4.20042
3.94891
4.92154
3.06281
2.53152
3.89246
6.26245
2.68806
3.03065
2.15392
2.81531
2.39349
6.49888
2.00793
3.42966
2.53706
2.38281
8.50454
4.13488
4.73322
1.71782
1.78648
7.36102
7.01765
8.5483
9.38633
7.43252
3.18632
3.54028
4.33647
3.13268
3.12954
6.81425
8.25944
6.63126
1.028
7.3912
4.63035
7.82636
9.24934
7.01773
7.67787
2.49063
5.15778
4.82735
4.50598
2.53026
3.18365
2.83707
6.60095
3.46565
11.2308
1.27566
7.36551
6.97145
2.58756
6.61922
6.19285
4.76148
2.16276
10.1123
2.34218
2.60295
5.28523
2.36527
8.54603
9.0077
4.2976
8.48622
6.43234
7.78183
3.76097
3.35433
9.02301
8.17719
9.59866
6.71349
5.2925
1.72419
5.10262
5.36063
3.73175
2.52755
2.28028
6.50789
4.90957
5.91665
2.69128
11.1577
3.77674
2.91379
2.45407
2.25562
3.00896
8.37337
3.8097
10.5061
3.65597
7.78083
2.66254
1.48359
2.75532
1.76553
5.65974
8.71097
8.05036
6.0931
3.90393
3.12507
1.95129
4.65812
3.51648
1.1042
2.78733
7.79035
3.45587
1.95211
9.03721
8.45979
2.35937
6.1119
6.02927
1.64968
1.57233
3.1179
2.70156
4.39314
2.13356
8.22616
5.7634
4.30777
10.0678
3.04819
3.35394
9.47564
7.68114
2.53847
3.14831
4.16832
7.28075
4.02588
3.51379
3.81807
3.06986
5.02071
10.9928
2.57718
3.01521
3.95108
3.29137
4.63494
8.19409
11.1761
4.38294
2.98589
2.61951
3.89292
2.75978
4.12629
3.00595
4.19506
5.00623
2.13868
4.55275
3.91835
5.29536
1.70519
2.68433
6.04754
8.59048
8.8733
4.44535
5.42817
1.62655
5.32539
7.51932
4.20919
7.76614
7.57547
7.09497
8.3211
10.3794
3.27457
2.26603
3.10129
7.81033
8.8927
2.05044
3.30024
4.23137
2.53228
9.22153
9.60256
4.5347
7.60163
6.61283
6.50783
6.64687
9.11979
2.84655
2.14789
9.50287
1.32789
2.79604
2.41802
2.21637
3.91798
2.23756
5.7195
1.44302
9.76005
1.45488
2.35444
6.18572
4.84415
8.10142
2.95082
3.34246
3.25145
1.92521
2.53645
2.43498
5.11661
2.49638
1.53745
9.20196
10.3339
8.13402
9.03265
9.68546
3.00251
1.74833
1.41739
1.41662
6.60133
9.30104
4.90346
3.9721
7.5015
11.3516
8.68292
5.50263
8.37668
3.77203
3.85661
3.95804
2.92568
3.56547
2.88174
8.24319
4.29106
3.13951
7.2868
8.80057
5.28794
2.21762
3.89858
3.24785
4.36329
8.0042
7.8762
8.81724
8.06823
8.38732
8.0145
9.06026
4.9373
4.18035
2.40646
4.16925
4.08829
3.99954
5.10704
5.56794
6.67017
7.09562
3.03538
3.36008
4.89264
6.83496
7.52113
8.9295
10.6649
4.87682
9.04837
4.1258
5.49871
8.1731
3.89254
3.32807
2.25463
1.50342
3.00856
2.72732
2.37783
3.7319
4.43467
5.81163
2.68781
4.63615
7.77263
2.23488
3.01236
2.84539
8.96456
1.53905
7.55612
2.90392
2.85697
1.29303
2.45906
8.48121
1.04734
10.4286
9.61707
3.31679
8.16686
2.85397
2.38263
1.70652
10.4922
7.9479
3.00487
4.51494
6.51137
5.1104
11.5505
3.7296
1.90144
7.54794
2.06689
2.81949
4.33985
3.21097
1.10222
6.80237
6.81094
3.75399
7.58903
3.01143
1.8462
1.92088
4.1537
2.09877
3.47683
4.09227
4.38951
3.04362
1.83073
5.80113
10.5856
5.46342
7.05495
5.82439
9.09412
3.15873
8.85851
1.6791
2.84858
2.61237
8.32609
3.24778
1.89996
2.38519
10.0658
3.11999
4.21911
1.74656
11.6941
2.5529
3.87947
1.79187
2.82675
2.79832
3.6724
4.29905
3.56669
9.06237
1.45842
1.4891
6.82697
2.30559
4.92993
4.75988
4.14131
4.54964
9.2647
3.47829
8.16691
7.35515
5.47741
1.649
1.85186
2.50314
3.76998
8.99229
3.34002
4.51246
5.35175
4.46926
9.35267
2.79591
3.73121
3.3226
1.54636
4.22655
1.95499
4.4186
3.50889
3.33852
7.68584
11.4353
11.6255
7.75516
6.07353
2.89854
4.3268
2.42708
9.18827
8.18107
4.86349
3.2459
2.17954
3.07633
2.23654
8.16991
1.98855
2.84239
12.0414
7.6453
7.14167
6.80614
6.11766
2.99882
1.85124
4.7201
6.27966
9.71463
7.70817
2.39818
8.62178
8.51822
8.44062
9.02472
2.57676
3.88378
2.18061
1.61048
2.15159
4.76991
2.73791
8.55895
3.25398
2.35344
3.07003
3.02641
5.07355
4.57958
3.11502
6.54179
2.94509
8.61824
3.41189
2.7574
3.63997
2.81982
3.22102
3.74829
2.85992
3.26227
2.15013
3.44058
5.72684
3.97966
4.79496
8.76763
9.75992
4.0591
3.55087
10.6821
4.58977
1.73696
1.54157
2.34118
7.05995
8.08272
8.29351
3.36848
3.59551
2.20196
1.67889
3.94547
1.58621
1.84755
8.58011
5.54529
3.56594
8.99014
1.83055
3.65569
3.85142
3.40474
4.31339
9.05443
2.75976
1.3218
4.05654
3.0426
3.95042
9.23963
8.65631
10.5534
9.91564
10.3878
3.68563
1.2954
4.67649
8.7
2.93036
3.57814
3.35343
3.77958
3.35365
2.30998
4.20113
9.14826
9.46787
8.7704
3.76028
2.30708
3.12628
2.47327
7.75735
9.74467
3.46175
6.97659
3.13929
4.12824
9.65985
2.76506
3.48711
10.5608
7.09301
2.03954
3.65772
3.96303
4.02699
3.90763
7.31664
3.18628
3.36433
3.47601
3.27758
3.67266
1.99258
4.73657
3.33674
7.50729
9.23173
6.94494
3.24586
4.35493
3.96273
8.53602
6.09741
5.85048
4.40608
7.60002
1.69712
3.91444
5.25302
4.94034
2.61723
7.92812
7.41593
3.49236
8.34148
1.14666
3.18336
9.01258
4.85238
4.72564
6.85748
8.28699
8.87605
4.69545
3.54797
9.84561
8.73293
3.83285
4.4397
3.24631
5.24938
4.00208
3.96389
5.46409
2.72644
1.48532
5.13672
8.24684
7.92303
5.61382
5.03969
9.44871
1.50504
2.56624
2.56068
4.80337
3.54444
7.57443
9.1394
10.1488
4.47562
4.99203
4.75764
1.35033
1.4252
10.4318
8.07269
8.67283
8.64657
5.55444
2.70972
2.34394
5.06447
4.95613
1.72528
4.28484
2.1518
8.1157
3.81022
3.30455
2.25579
3.9574
3.1376
6.53406
1.4915
2.32758
2.49982
6.86742
2.07826
4.7283
8.55744
3.21488
3.94033
2.51684
1.97833
5.72466
3.32153
1.3138
4.52403
5.51462
2.36825
2.04129
1.79105
1.43609
10.0064
4.32013
1.56027
5.44166
4.32702
6.04177
5.0011
3.56781
5.77695
4.72067
9.09068
2.72609
1.41603
2.15922
2.41195
2.26462
3.23904
7.65995
7.64693
3.99503
8.69912
2.86779
3.041
3.29044
7.91803
7.90779
8.24961
7.78316
8.7015
4.71185
4.60703
3.89437
7.81926
8.72336
8.38172
6.26783
3.48814
10.8791
1.71225
2.0881
9.71498
2.98248
3.30644
5.72271
2.84443
2.7625
5.28652
3.81727
2.5235
3.76089
2.6169
10.3752
7.33927
3.16693
3.47407
5.27846
1.51582
9.4021
8.94799
5.03971
1.86362
3.0769
8.96869
1.20349
6.98933
2.42526
2.29848
4.48829
3.63126
5.20427
5.07573
8.05802
8.67393
9.52926
4.44764
5.2928
5.31648
2.68614
4.35656
6.63857
8.27994
5.88179
4.36488
4.4259
3.1267
3.81634
10.8483
1.62062
4.18503
9.93968
4.21506
4.51501
8.37272
8.77567
8.37796
8.8153
8.47111
9.23729
8.66905
3.39094
3.35142
2.88672
1.47318
6.14731
4.65969
1.62528
9.87548
2.0481
9.43162
8.47271
2.99287
1.61801
8.79577
5.60577
8.11445
8.17231
9.61247
5.29735
2.97879
3.10383
2.53834
1.30874
3.52845
2.43443
6.13914
1.26252
2.68543
2.43371
7.96874
1.93278
3.48975
3.2424
8.7692
4.87951
8.45099
5.02686
3.46294
8.73532
3.18549
4.62114
2.42468
6.37533
2.06579
2.1411
4.59745
5.58842
5.45785
8.34037
4.8993
8.32429
2.79541
2.11533
7.82213
5.18161
9.93324
4.45756
3.77172
5.87006
3.37124
8.90784
2.29167
5.00364
7.52432
1.32517
4.36166
2.27828
4.45402
4.35287
2.45371
1.32444
2.56696
4.27889
3.45266
4.94938
1.68462
4.49662
5.97221
1.83288
2.26536
3.59448
2.82092
2.78484
2.75171
8.41856
2.41367
5.8731
2.69263
4.46455
7.39071
6.08446
8.52404
2.04145
7.90906
3.53678
2.3516
4.46182
7.29649
6.83686
5.47976
4.95345
4.72633
5.17803
3.99426
2.83857
2.83564
1.97166
7.13087
2.01994
3.80126
9.28965
8.1242
4.85008
2.41081
4.0519
4.01875
2.7737
2.05286
9.05896
3.47023
4.33417
1.49817
10.1556
7.40691
4.64313
8.37558
7.66041
5.13369
4.45639
3.22524
1.91755
3.05858
7.97719
1.62024
2.22127
7.47746
3.50812
9.12434
9.46455
5.36542
4.82439
1.66079
3.03862
4.55742
4.9882
6.32571
2.41413
2.24289
5.35451
3.63959
2.9276
8.08621
9.11889
9.44471
3.93017
1.30171
6.39389
3.13915
5.18989
8.83745
6.17321
5.56463
3.67549
7.14694
3.47372
3.33774
5.46808
3.5912
5.70824
7.49588
2.33706
3.33966
3.71185
10.6918
4.37232
3.31429
4.5412
1.94835
5.55221
8.50099
9.30754
3.36527
5.02992
1.98142
6.04897
10.3538
3.28448
5.40302
1.54727
4.18616
2.14822
7.3383
8.96081
3.69789
3.9491
8.52005
1.96398
2.60721
7.00143
2.00688
1.57935
7.82335
3.90114
7.44488
7.41043
7.60724
6.88258
5.79015
8.09834
3.50124
3.33536
3.06293
11.2765
3.68071
3.54501
4.82444
3.42786
2.98605
7.1999
8.96532
7.49226
8.46587
6.45109
6.99358
10.7725
2.87754
8.61235
1.59858
9.69553
2.0988
4.95603
8.60048
5.40067
9.41996
9.72648
3.01877
8.34148
3.75543
3.54076
5.14785
9.08315
4.20702
3.47908
3.44029
6.45425
4.29971
3.43253
2.31507
3.10389
9.28639
3.84627
3.69552
3.75093
1.74835
3.97035
3.0152
5.56922
3.68826
2.27349
4.15314
3.62256
10.0401
8.4252
8.37847
5.7087
5.58383
2.58102
4.00392
8.46739
7.61191
8.87582
9.22193
3.14913
5.77253
2.84956
9.13295
5.07995
10.6258
7.1754
3.19906
2.94524
5.50819
7.37744
1.65916
2.0464
1.8805
3.23724
2.87889
1.45203
8.92498
8.57659
6.63466
4.71168
8.73154
3.73218
8.04742
4.19129
5.23788
2.50783
6.88256
3.99141
6.36086
2.48968
2.44216
8.37786
5.4343
3.79021
2.61506
7.42705
4.26391
2.61813
10.0115
6.56635
5.04996
4.47552
4.58789
7.24374
2.3307
3.26738
9.31711
5.6266
8.80054
7.6224
1.99569
8.63606
8.01242
3.1508
9.31099
4.70364
6.48529
7.68296
5.64435
7.50992
6.7137
2.82709
1.77127
8.30887
6.47909
5.25387
5.83177
5.38564
6.01601
8.42467
9.16115
2.92575
9.44539
3.22938
3.46642
4.25007
7.57985
7.15306
6.49975
4.16279
1.17502
5.76791
6.43624
2.45058
2.16255
7.31332
9.60592
4.52791
4.58719
4.99185
7.0459
3.44591
5.44001
4.22395
7.5515
2.91997
4.6788
4.16151
10.5583
7.52294
4.7614
6.93746
3.28208
3.50491
5.36052
6.89719
2.75121
9.48538
4.70459
4.48159
9.77658
10.2614
6.08162
6.4198
8.01856
10.4765
3.72172
4.60232
3.22741
6.64935
2.63097
3.37708
3.72786
2.8153
10.9225
7.69531
2.65726
7.12287
9.24301
3.88968
3.09663
3.54844
4.59269
6.55225
2.9052
6.87474
4.83087
9.72413
2.57627
2.00627
4.30741
3.71711
3.26257
2.39158
2.4202
2.32112
2.20547
2.13088
5.12842
6.03043
2.53668
4.63077
4.8298
8.41933
3.3478
9.5594
3.46887
4.49939
1.27942
4.42792
8.31951
7.31181
2.50542
7.17556
1.92895
3.61417
6.31732
8.20454
9.9986
8.14443
8.50524
3.14401
4.97283
4.36112
5.93091
4.60438
3.16733
4.86062
7.31264
3.59301
4.62124
3.66325
6.20521
8.68482
9.38348
5.73947
4.48621
1.8951
8.68059
5.88266
9.31549
6.64454
4.98384
1.55925
8.31854
5.7519
4.02928
5.67821
5.68973
5.36861
5.58349
4.45366
5.65528
2.26612
1.70153
1.7587
2.52305
4.445
8.66248
1.57241
7.03983
4.80214
2.70076
2.37955
3.01881
3.72956
9.02437
3.29054
2.96786
8.49108
2.35403
8.29612
3.06415
3.82477
5.56714
4.32455
2.45915
4.30279
6.98191
5.81505
11.2738
5.58763
7.13234
8.24736
8.43405
1.76643
1.99865
8.83092
9.84867
4.45574
7.77151
1.76204
2.59723
5.70318
7.40856
8.93626
4.45928
3.95922
4.1575
5.46214
4.91586
4.48555
4.09677
4.31648
5.41805
5.86362
4.42243
8.23295
5.97664
6.77611
7.63097
4.06345
3.19111
9.10051
2.56988
3.08209
6.60121
4.44683
4.87781
3.90311
5.86009
10.7131
8.70995
4.43518
1.62546
1.66885
7.03935
3.87843
7.87221
5.77024
3.69223
4.64812
3.66282
7.98548
4.82834
5.0966
6.9136
3.14866
7.3748
6.82133
3.60341
5.82556
4.22019
4.03244
3.05852
8.97259
3.87804
4.98333
4.58611
5.73617
8.61563
8.63063
7.2464
1.49007
1.73992
4.18146
8.18169
4.40688
4.44416
4.54287
3.94496
6.06495
4.14489
4.93333
4.58986
1.92426
9.30253
8.52832
3.10061
8.13726
3.92874
9.16272
4.03418
4.66872
8.21996
5.97877
8.81367
2.68001
4.73115
2.24454
5.68758
5.0179
9.02922
6.52076
5.76611
5.48484
5.66764
5.36907
1.33918
1.75841
2.26329
1.64375
9.35749
3.43251
7.25661
3.14714
8.45339
4.51082
6.00796
1.36847
3.4896
3.35189
9.16156
8.43664
6.94293
9.72079
8.7754
1.7015
4.20613
1.42982
1.52931
8.75856
3.81076
4.75881
3.71649
5.13569
1.5317
2.02945
8.74048
8.74889
3.30401
5.19077
5.49475
4.8266
9.84041
8.51124
4.22135
12.2597
1.38168
1.31046
4.27662
3.7886
4.61477
2.12732
1.22971
2.47556
8.43771
3.47223
2.76834
4.06955
3.27698
7.76604
7.02387
8.47355
6.475
8.70407
3.81356
7.02917
7.8822
3.0919
4.9286
1.28936
2.42385
4.90602
5.70152
3.83957
9.33019
9.36357
10.7202
8.74946
4.21746
7.02863
7.51979
3.47809
9.1081
2.21384
2.66087
8.37406
2.80601
5.42609
4.42707
9.43014
3.71355
10.7465
2.90364
2.79004
5.28106
4.72149
3.39159
5.82862
5.41835
4.16399
3.99414
2.59368
2.40203
6.78465
3.26136
2.95788
3.67354
3.67831
4.83451
4.11884
3.37855
3.17554
1.19004
3.04946
2.28798
9.83218
4.79608
8.10797
7.62183
5.41661
4.38717
5.1999
2.90172
3.52759
5.2297
3.13908
1.25933
4.27655
4.1198
5.13025
3.88747
6.72119
2.37605
5.23545
4.50743
5.89256
6.74421
6.5953
7.82018
5.28688
3.16944
10.0077
10.6641
11.1781
10.7604
2.51327
4.03297
3.1138
3.79863
3.78818
2.15897
2.81999
4.15852
7.55504
3.45197
3.04403
1.13013
7.06758
5.18114
7.32787
3.32732
2.61311
2.22582
3.58267
3.13004
5.23493
4.55239
7.91309
1.80491
2.05746
2.97054
7.70306
5.06053
4.2431
5.5677
3.55717
2.91479
1.63074
5.39438
8.82868
6.91208
2.83815
3.62308
3.46246
7.23955
7.39871
3.1025
1.71737
8.99298
6.90756
4.35587
6.10796
8.83008
7.2353
3.68189
4.17667
6.38764
8.72474
5.11332
2.19345
4.34682
4.11383
3.86474
3.29786
4.60028
2.57592
9.0132
10.9577
8.77775
3.34164
3.05735
3.60704
3.10059
3.23767
3.48888
8.73792
3.95425
4.20053
2.64583
6.52525
4.68613
3.75407
1.04542
3.68463
4.90679
4.09086
1.67502
1.74307
3.02455
1.54545
1.50115
5.40436
4.87507
9.06393
3.26796
5.30282
5.23929
2.92624
2.96699
6.39747
5.24752
6.08146
2.81006
2.53603
7.76176
3.7873
8.63907
4.11955
6.06449
5.10946
5.267
6.91188
5.63794
6.36633
10.3024
3.2868
5.61502
5.61179
5.15843
5.44952
4.13288
3.43506
7.90819
4.27772
4.72614
2.81831
3.71425
4.71817
10.6367
2.91853
3.18568
9.49012
3.96489
3.97046
6.93727
5.1398
2.90072
3.01444
3.2608
3.13083
3.31294
2.72033
1.79322
2.67918
3.99343
4.60278
8.82472
2.92708
2.73229
8.61014
3.6634
1.70196
1.50244
3.7721
1.23502
1.43463
9.08454
1.68851
1.65651
2.95323
7.25617
2.81752
2.54842
2.8992
5.44895
6.20957
2.31884
1.84171
6.01171
1.69242
2.09055
5.51187
2.3874
1.4162
1.46571
5.6399
1.94825
1.97125
2.99109
10.6217
10.0909
2.13576
2.31536
8.40596
4.15647
2.53347
3.21148
7.96758
3.21919
5.08856
2.87672
7.7515
6.09539
7.5203
5.83613
5.19138
3.09312
10.1881
6.4783
4.77352
5.89723
3.87814
3.85041
4.07338
6.14066
6.2418
5.41718
3.61333
5.13103
5.50117
8.00505
7.61433
6.00725
4.73368
5.60368
5.56526
3.05235
2.99142
9.81112
8.48153
3.45893
3.81922
6.17566
5.24744
5.50323
5.11193
9.00873
5.73598
3.29524
2.91027
6.77827
8.11479
2.44292
3.23035
3.452
4.91528
2.89964
4.03224
9.35117
3.85199
3.70917
6.17048
4.38944
5.09618
2.30581
1.9275
7.85561
4.79315
5.44517
5.34001
1.79032
1.66323
6.63118
7.09266
7.33131
7.86744
4.10669
7.02775
4.36274
3.5435
3.01934
4.75852
10.2049
11.5536
3.51892
5.45952
9.16263
5.63537
6.22812
3.44063
5.80071
5.57545
5.57611
3.46353
8.54122
7.97415
3.48628
2.41755
3.05739
5.55766
3.52475
5.94927
6.56948
7.85589
6.12101
2.36424
4.12234
4.11586
2.4606
3.2235
5.99871
5.44906
1.29215
4.47426
3.0744
4.58516
4.39706
3.07989
1.28761
3.37212
3.77676
3.67259
2.1911
7.7513
3.32938
5.1457
3.95909
2.81428
2.1772
4.10215
7.48066
4.15395
5.67019
2.19376
1.83477
6.26463
7.4319
6.62889
5.3757
4.47305
2.35504
7.47248
9.6378
7.76483
2.14913
4.97523
4.4155
8.22294
2.92878
7.74822
7.95378
6.39776
3.1494
3.17426
1.61931
3.88169
4.51875
5.27726
3.03755
3.61177
4.67636
8.43674
5.86872
4.19613
8.15597
7.90961
3.37943
3.39607
6.86652
5.93981
3.63431
3.70025
5.21235
6.48416
5.76038
9.11544
8.51307
9.46624
5.12863
4.49479
8.17595
7.49458
5.92507
4.59055
7.11724
5.49189
6.16168
1.93436
5.41896
4.55557
2.36255
2.13343
7.5595
7.20965
8.11271
5.1881
3.57056
4.80726
3.27667
2.56912
10.5777
4.71375
3.23082
2.78676
5.34539
6.01388
7.72488
2.85836
5.10087
8.61882
6.10838
3.43393
3.29504
2.35333
3.45943
4.10998
7.04397
6.1616
3.90987
2.81304
5.35403
2.57883
5.43679
1.84857
1.67657
5.12093
5.21201
4.89962
3.91898
5.63805
7.07216
6.5841
3.75723
6.33255
7.46305
2.10282
2.61042
3.68628
5.45049
3.0632
7.42159
2.07162
6.54637
5.81814
4.69276
4.33137
2.58241
4.27155
2.84899
4.18054
4.71901
6.95894
3.3704
4.79065
6.70135
6.61406
8.92166
5.5157
4.904
13.085
5.20969
10.803
6.48555
3.62816
13.2719
8.97256
4.9143
8.13874
8.22312
3.83734
8.16714
3.30399
4.06415
2.69129
6.02086
6.60415
5.45514
6.23999
8.40954
4.45024
4.64295
4.70494
4.07931
7.33718
8.81982
3.09095
13.377
4.73119
3.86903
4.74981
5.68123
11.2657
5.85132
4.49616
4.94525
5.87005
4.6618
6.14976
5.90146
10.4537
11.429
16.0773
17.2595
9.22205
11.1727
4.66157
5.93816
7.36145
14.7656
4.42574
10.5468
16.309
3.8593
3.3201
16.3537
15.8253
5.77602
4.60849
14.1605
3.85411
14.0319
6.27305
13.4602
6.80137
3.12445
4.60633
15.5565
5.3766
7.45625
4.88117
6.68266
6.48707
6.0614
6.01533
4.41903
10.1616
4.94673
3.64714
5.15755
5.42831
5.12746
3.26164
15.1838
6.57654
7.02758
5.09268
2.23493
10.3372
2.85493
6.79188
7.54933
8.68083
2.53249
3.80029
3.84994
4.25154
11.53
5.16887
3.11584
17.3188
17.0913
10.7058
5.6392
10.3127
3.90444
3.21014
4.71024
6.07316
11.4602
5.65106
11.3
19.7778
15.9173
2.92545
4.09272
14.1297
4.74068
3.85349
13.4749
2.90451
2.9049
1.69655
1.96607
6.64373
6.8731
10.6326
3.70653
6.67703
7.1508
16.5507
2.66993
5.23031
9.46479
3.29084
2.18727
5.6909
3.43588
8.49604
2.90097
2.49674
4.81677
16.2314
4.92606
6.15546
16.0887
5.07495
5.20403
6.91721
2.88557
3.63265
3.37833
12.8089
17.7635
20.3001
4.6862
5.56902
8.21646
7.93164
18.1736
10.2749
14.9841
10.5569
7.92124
5.36063
5.76685
19.1108
3.54082
2.52599
13.2579
7.77156
10.1882
8.20504
9.43981
10.5916
6.39762
13.106
7.83381
3.54183
5.371
5.54764
5.74056
12.4822
11.5555
3.71886
4.45086
4.26657
2.05991
6.45979
16.1573
13.2865
11.2694
12.9868
3.44889
4.39425
3.68706
4.7591
4.73963
5.4551
4.62762
15.2734
13.2535
15.3114
2.71489
1.90163
5.06448
4.29256
10.5809
6.73343
6.78262
15.9721
3.56705
11.1949
5.62132
7.97603
4.41147
8.87901
5.36951
2.9018
16.3953
9.05811
6.12094
11.4044
8.25249
4.55328
5.07452
6.4954
14.2442
13.8342
10.4562
4.92665
13.0798
4.61742
5.47033
14.4137
9.82499
6.53071
9.30899
7.48832
4.63532
11.8063
4.83919
4.28529
5.87671
17.3393
17.2647
14.6128
8.49734
13.4547
4.23422
6.52035
5.51746
10.9353
5.19495
4.57129
8.14271
9.64269
2.9146
6.44084
3.73575
4.5099
3.51904
11.139
1.9621
6.96776
3.06315
3.94613
13.3185
8.4475
7.64127
2.39766
4.27742
11.183
10.8647
13.3317
16.0236
11.4568
5.43003
5.38463
6.78377
5.6169
5.56481
10.7587
13.3485
9.9529
1.80833
11.7034
8.14561
11.8892
15.316
10.4201
11.9079
5.25543
9.24125
7.60242
6.34518
4.30654
4.85214
5.8061
10.3695
6.54812
18.6058
2.89749
12.627
13.5623
4.065
10.652
8.81355
7.50168
4.69187
17.8052
4.06735
5.42161
7.71818
4.22717
13.4208
13.6429
7.06433
12.8932
11.0373
12.9179
6.75852
5.89838
14.3133
12.2524
14.1935
13.42
8.0791
3.27219
8.20002
8.12141
6.93958
4.81378
4.70607
10.0648
7.75476
9.37891
4.63089
19.295
8.1862
5.2415
3.87291
5.1756
4.22227
12.5509
6.89065
17.671
7.82804
13.3041
4.55227
2.55431
3.57252
2.90607
10.3907
13.2965
12.3044
11.2762
6.70107
6.23896
3.33718
7.47929
5.00322
2.09869
4.02224
13.7499
6.53798
5.23929
14.9968
13.3101
4.14754
9.47977
9.78321
3.46799
2.63528
5.85934
4.22037
10.0099
4.48178
12.616
8.13649
8.09745
16.7005
6.19002
5.24199
15.119
11.7668
5.73283
6.5151
8.14568
13.997
7.29315
5.68369
6.21671
5.15274
9.04445
18.8366
4.13625
5.65468
6.77844
5.67579
8.26625
15.8188
17.3449
6.50333
4.52729
4.38501
6.02794
4.65605
7.9134
5.23953
8.3605
9.14871
2.31371
7.07738
6.8163
10.6042
4.13691
5.24341
8.80693
16.1838
16.8194
6.26283
9.11407
2.79223
8.26626
11.3532
7.99423
11.4707
12.8205
10.2671
12.8898
16.3809
5.55534
2.70724
5.83351
11.8754
14.209
3.2993
5.26324
5.99496
5.44991
15.9889
17.4793
7.10894
12.8735
13.8553
9.6465
11.0977
14.7663
3.9172
3.30206
17.2885
2.23595
5.54848
5.0856
4.07093
6.41323
3.28756
11.3534
2.64367
15.8864
1.96779
4.97638
8.35544
8.52017
12.4521
5.54528
6.01977
5.82537
3.52696
6.03796
5.84818
10.7062
3.94875
3.47167
16.8415
19.1084
14.5597
14.3818
16.5945
4.04862
2.94732
2.05888
2.18949
11.1898
15.148
7.65076
6.92819
13.3427
18.4503
13.7575
9.06819
12.943
7.65507
7.05438
7.43313
4.86546
7.01546
5.3961
12.8276
9.84062
5.94309
10.2915
17.3743
11.5788
3.85092
7.0172
6.33443
7.22463
12.426
11.9116
13.6665
12.1742
12.8518
13.369
13.8043
8.08352
8.12262
4.40673
7.035
8.07237
7.34812
7.90243
7.27079
9.01908
10.9485
6.77458
7.26835
10.2305
10.9155
12.3467
14.3352
18.4618
7.33689
14.3166
7.20084
9.63603
13.0446
8.54437
7.84226
4.96796
2.62617
5.34377
4.35529
4.11723
6.778
7.71381
12.1726
5.07876
8.78267
12.092
3.77137
5.63951
5.09733
14.941
2.95235
12.889
3.6937
3.83287
2.40821
3.35686
13.0732
2.43496
19.2195
15.9231
6.3972
13.6838
5.13389
4.01111
2.38294
19.0438
12.4392
4.92464
10.1986
10.5461
8.13717
20.5595
6.23008
3.65861
12.3545
3.49377
5.98675
6.86156
5.23182
2.11187
13.1987
10.4014
8.19214
10.2209
4.1052
3.03374
4.09608
9.01202
4.53424
5.07609
6.65163
8.0432
6.38453
3.89682
8.49628
17.754
8.4013
10.2922
9.46897
15.2851
7.58869
13.9722
3.48908
4.90013
3.61257
13.1247
6.04118
3.61495
4.93023
14.8046
5.45552
8.49508
3.24093
19.767
4.82959
7.97759
2.93424
4.47799
4.81803
6.82104
5.86444
6.61317
14.252
2.52701
2.90199
9.78501
4.81591
7.77761
7.73899
5.90598
6.46864
15.4071
6.89522
12.6575
11.2045
8.02306
3.31217
3.76461
4.27422
5.92703
14.937
6.57187
5.8104
8.87889
6.35824
18.5403
5.32567
7.41291
6.26295
2.48385
7.3458
4.54692
8.4063
4.2253
4.96236
11.5918
19.1013
18.6336
13.6192
9.78539
6.22864
6.63062
5.09078
14.3267
12.8158
7.06305
6.30936
5.20879
4.9226
5.05982
14.07
2.68526
4.50033
21.0952
12.1404
13.355
9.04339
8.37143
5.61208
4.3755
9.15935
10.3037
14.5899
11.5083
4.79694
13.7418
14.1583
13.4156
15.0865
3.79099
5.69567
4.87112
2.24401
2.80543
9.73158
4.63337
16.1088
6.97264
2.95395
5.0789
4.35145
8.2512
7.69174
7.15769
9.92344
4.86539
13.6589
6.19797
5.82678
7.12994
6.65942
7.35297
7.62577
5.43961
5.63581
3.18902
5.14507
9.07103
7.31933
7.70622
13.5256
15.8184
6.56651
5.51224
18.3722
7.64727
3.69787
2.97098
4.91689
11.19
12.4884
13.033
6.88377
5.78086
3.83357
3.9544
7.67426
2.80506
2.83819
12.6266
9.59727
7.19704
14.4663
3.83564
6.94988
6.80839
7.29828
8.84194
14.9395
4.5972
2.09957
6.61188
5.36595
7.21311
13.9107
14.0704
21.254
15.8819
18.3504
6.69869
2.2139
10.0668
13.9375
4.71952
5.95144
5.38518
7.24644
4.6168
4.67246
6.94741
14.278
15.1372
13.588
6.77775
5.63027
6.21464
5.37557
12.2082
16.1152
7.96909
10.651
6.22561
5.83114
15.3674
4.26561
6.45
17.9675
10.0714
4.98284
6.70471
6.74858
7.31793
6.31908
14.0297
6.65074
5.07307
5.29541
4.68309
6.52487
3.68547
7.21212
7.2691
13.3652
15.1722
11.3249
5.76131
7.21119
6.53129
13.5723
9.26568
11.6118
7.64486
14.4642
2.84086
7.60627
10.7061
9.65675
4.42647
12.0959
10.9124
6.29721
13.4659
1.94333
4.21874
14.3474
7.82021
8.18422
10.9237
13.573
14.2284
6.23235
7.98794
16.2343
14.8306
6.21297
6.32474
5.9669
10.5852
8.7034
6.30964
9.34912
4.60978
2.4101
8.37433
14.622
12.3426
8.6621
7.91894
13.8213
2.77903
4.25212
4.26569
7.30496
5.60702
12.0133
14.761
16.4877
7.28004
10.3812
7.08311
2.42966
1.76326
16.6002
12.1271
14.5853
15.4871
9.29113
4.61184
4.03077
8.80702
8.67874
3.00437
6.67857
3.44704
13.201
6.77357
6.63786
4.23603
6.23215
4.31518
10.4425
2.30072
3.15422
5.4247
13.4486
3.54926
8.13534
15.0384
5.42772
6.05702
5.51705
4.45144
9.61604
6.85997
1.97309
9.24247
8.5492
4.42004
3.39107
2.56529
2.42877
15.9761
7.14096
3.13414
10.9276
6.5458
10.197
8.76635
7.43461
8.469
7.03237
14.8894
4.25158
2.18372
4.79778
4.978
4.32255
6.66157
12.4513
11.5613
8.30158
14.3169
5.4634
5.72583
6.03729
13.5796
11.9248
12.927
11.2463
12.9253
8.62384
7.76046
5.89996
12.9512
13.4224
12.8948
9.71036
7.05981
17.6086
2.76045
3.3387
15.0339
4.02512
4.54023
8.91523
5.70532
4.43599
8.75907
7.29262
3.93153
5.83924
5.34364
17.033
12.1904
5.64797
7.48696
9.1943
3.11896
17.1311
16.588
7.64095
2.68132
5.42128
15.0959
2.57591
11.4443
5.34924
5.06598
7.60032
6.31629
9.41102
9.04409
13.2696
13.7489
17.7189
11.0312
8.02157
7.82124
2.99615
8.35354
10.0164
14.604
9.38108
6.47532
9.36181
6.19248
7.77441
15.3919
4.05318
7.40485
16.8153
6.29818
7.58374
13.1865
13.8937
13.3866
13.6971
13.2147
13.9329
14.4907
7.29849
7.3534
6.67217
1.85652
8.92316
7.06864
2.77361
15.2717
4.03106
15.045
12.3187
6.69218
2.74605
14.3836
9.42025
12.6929
12.5634
13.7578
8.57549
5.0628
6.05904
4.37115
2.28972
5.87294
4.35957
9.55734
2.39919
4.80813
3.95967
13.7077
3.65107
7.56711
5.75085
13.6101
6.70262
14.2834
8.665
5.03435
13.8813
6.23297
6.95175
4.42227
10.3904
3.56932
4.0181
9.44994
11.0277
9.61768
12.8229
8.07136
13.2646
5.22048
2.58979
13.5655
10.9291
16.4316
6.60838
7.39584
7.20833
7.17231
15.2985
4.61698
7.35362
11.7555
2.78931
6.32193
4.99859
7.22176
8.6107
4.43944
2.67854
4.20584
6.97724
6.48461
8.68639
3.20421
8.09915
10.0138
3.5567
4.27366
7.6241
4.75888
4.02743
4.98047
13.1991
3.26657
9.35919
4.9038
8.12503
11.8381
9.22913
13.9435
4.57663
11.1344
6.76633
3.41189
8.35188
10.5761
9.21669
7.98562
8.59701
7.57827
8.06661
8.18722
4.74313
4.44973
4.21749
11.2459
3.79811
5.57306
14.7772
14.1665
10.4259
3.96117
6.91966
7.55884
3.8035
2.65693
14.3674
6.21859
8.67241
1.87503
17.6369
12.5569
7.01716
13.935
12.3793
7.78698
9.77082
4.54888
4.35737
4.945
12.0634
3.38282
3.7279
11.9489
4.0578
15.1929
16.1511
9.43829
7.91137
3.69371
4.79555
9.38953
8.37629
10.8966
4.16707
3.73594
10.6529
6.73445
4.76362
15.5661
15.9802
15.8201
5.64271
2.41525
9.64378
6.62025
7.49415
14.5071
10.6479
9.85032
4.76328
11.0365
6.00164
7.07278
8.80049
5.92403
10.3245
12.2811
4.46309
5.16553
6.20019
18.0004
8.02545
6.43236
5.81093
3.4431
9.06602
13.1805
14.7244
6.86523
7.66807
3.51345
10.9079
19.643
6.06471
9.79536
2.53984
6.37493
4.62669
11.6786
14.6223
6.65414
7.42308
13.1487
5.34882
4.87308
11.2998
4.28849
2.98392
14.8158
8.91903
11.7597
14.6926
14.7097
11.0378
8.88869
12.8187
5.44269
6.7287
4.48317
19.0137
7.62369
5.48769
7.56614
5.22506
5.19026
13.1485
19.3941
11.5373
14.0584
9.9509
11.5068
19.366
6.65993
15.7599
2.83094
21.1558
3.5472
7.16398
14.5003
8.91232
15.2447
15.4116
6.43748
14.7719
7.51459
8.16286
10.4948
16.6593
5.81806
5.74555
7.20287
9.37298
8.87457
8.29874
3.90474
4.24314
14.2206
6.71731
6.05069
5.08009
4.01712
6.00906
6.82653
8.3344
6.37694
3.86102
7.68897
5.96509
13.9083
13.6996
13.1911
7.65585
7.50493
4.81588
7.40946
12.7132
12.2092
14.9878
14.1421
5.60615
8.32532
4.38571
14.5008
7.90091
20.0269
10.2783
5.34073
4.96625
8.22123
11.5009
2.98704
3.41491
2.67905
6.1378
5.47457
3.4315
15.8136
15.6684
9.72754
6.78827
13.4375
5.78015
13.2371
5.31614
10.9801
5.13333
10.2175
6.13945
9.55639
5.8232
3.58242
13.7349
10.6559
6.00099
5.28263
11.0129
7.1672
4.05809
21.8671
11.4558
6.46942
9.35891
8.24482
11.4753
3.86046
6.42155
14.056
7.7751
13.9626
12.03
3.14615
13.1934
12.2115
6.87307
14.5099
7.67263
10.4098
12.6891
10.8975
11.9071
10.9347
4.90443
3.3069
12.9941
10.3981
6.96934
8.75088
9.21842
9.34602
14.4779
15.265
5.83575
14.759
6.78354
7.23989
6.6625
11.1486
11.0429
11.386
6.56312
2.09272
10.1279
11.4376
3.70596
4.00451
11.6667
14.3955
6.93273
7.01403
7.59198
10.1687
5.36963
9.56314
5.69071
11.4338
4.36335
6.88369
5.38107
15.8142
11.495
6.36061
9.99918
6.10287
6.58361
7.97298
10.5186
6.52492
15.3118
6.52399
9.12853
15.5733
19.2969
9.4797
10.1097
12.6134
17.249
6.54011
7.73089
5.0282
10.2669
3.58589
4.064
6.84558
4.4929
18.5778
12.1187
3.60332
10.7564
16.4503
4.96302
4.98898
7.1335
8.20615
10.0131
4.60519
13.3711
10.7825
16.6446
3.82911
2.65519
8.44939
7.5428
4.18517
3.20054
3.40305
3.5156
3.6339
3.54858
9.8547
8.74166
4.34696
9.00368
6.65633
13.3442
4.72518
15.2503
6.73597
9.4555
2.71436
7.83281
12.6488
11.2789
3.89397
10.6149
2.61008
6.24908
9.77824
12.2115
16.1315
13.3115
12.8763
5.84815
7.48231
6.93667
9.01784
6.86113
6.12864
7.34201
11.1333
6.54022
6.76569
6.11622
8.61639
13.7462
14.9717
8.85875
6.04694
2.58004
13.5168
8.03743
14.7573
9.71083
9.95706
2.56996
13.7257
10.0389
4.98892
8.40615
7.70536
7.44375
7.96069
5.72782
9.05493
4.07455
3.29968
2.39404
3.78776
6.13163
12.9714
2.48428
11.773
8.27826
4.05277
3.60664
4.29981
7.75721