/*--------------------------------*- C++ -*----------------------------------*\
| =========                 |                                                 |
| \\      /  F ield         | OpenFOAM: The Open Source CFD Toolbox           |
|  \\    /   O peration     | Version:  2212                                  |
|   \\  /    A nd           | Website:  www.openfoam.com                      |
|    \\/     M anipulation  |                                                 |
\*---------------------------------------------------------------------------*/
FoamFile
{
    version     2.0;
    format      ascii;
    arch        "LSB;label=32;scalar=64";
    class       volScalarField;
    location    "10";
    object      nut;
}
// * * * * * * * * * * * * * * * * * * * * * * * * * * * * * * * * * * * * * //

dimensions      [0 2 -1 0 0 0 0];

internalField   nonuniform List<scalar> 
76615
(
0.00138613
0.000905342
0.00109442
0.00143768
0.000968401
0.00126252
0.00122332
0.00145989
0.00156123
0.00133514
0.00195429
0.000953157
0.00156655
0.00117036
0.00110211
0.000920836
0.000826682
0.00104595
0.00136095
0.000591554
0.00149553
0.00205266
0.00181292
0.00155222
0.00105071
0.00139016
0.00131284
0.00134624
0.00137633
0.00107591
0.000929819
0.000588195
0.00165922
0.00105331
0.00150896
0.0015845
0.000913569
0.001542
0.00098787
0.00063439
0.0006851
0.000860247
0.000968435
0.00175389
0.00116938
0.00124979
0.00131014
0.00125904
0.00150056
0.00161454
0.0012048
0.000952472
0.00139452
0.00127643
0.00138701
0.00119908
0.0014331
0.00137147
0.00132833
0.000748979
0.00169363
0.00143191
0.00149368
0.00114315
0.00132617
0.00139472
0.00126387
0.000964033
0.00117766
0.00158978
0.00106489
0.00169473
0.00109672
0.0012039
0.00117052
0.00217256
0.00192299
0.00165531
0.00174391
0.00100943
0.00100042
0.00146384
0.00138628
0.00128607
0.00104031
0.00136063
0.00141508
0.00134632
0.00139988
0.00134863
0.00123557
0.000672941
0.000876455
0.00151489
0.00149514
0.00105772
0.00115704
0.00145183
0.000869352
0.00113513
0.00139305
0.000690631
0.00144349
0.000906059
0.00117046
0.0018526
0.00154912
0.00149946
0.0014723
0.00160634
0.00123151
0.00124058
0.000783306
0.000805908
0.0012033
0.00130366
0.000941368
0.00169456
0.00114915
0.00102944
0.00119491
0.0013394
0.0011148
0.000918614
0.00142633
0.00128136
0.00100288
0.00081439
0.000878562
0.000941054
0.000910168
0.000979402
0.00112243
0.00156888
0.00139283
0.00153308
0.000933287
0.00158365
0.00158877
0.000798538
0.00146094
0.00163782
0.00138452
0.000918128
0.000963991
0.00123397
0.00132698
0.0016938
0.00194137
0.00171495
0.00156155
0.00157429
0.00153222
0.00123927
0.000866634
0.00138924
0.00135596
0.00136423
0.001664
0.00160963
0.00148758
0.0016419
0.00212902
0.00174896
0.001571
0.00156179
0.00133382
0.00106157
0.00115396
0.00117978
0.00189276
0.00162888
0.00119985
0.00105824
0.00132929
0.00125139
0.00106836
0.00122403
0.00115938
0.00152581
0.00169019
0.00126757
0.00102427
0.00129589
0.000995889
0.00121087
0.00148496
0.00119017
0.00162852
0.000950018
0.00121789
0.000920531
0.000976953
0.00113296
0.00146989
0.00134479
0.00141642
0.00122115
0.00106866
0.000832123
0.00124908
0.0010721
0.000983924
0.000691073
0.000660046
0.00144697
0.00121057
0.00150917
0.00124997
0.000884088
0.00154428
0.00149723
0.00161321
0.00143324
0.00138311
0.00141933
0.00101566
0.00160956
0.00119778
0.00112687
0.000672777
0.00125981
0.00111241
0.00107738
0.00158116
0.00101771
0.00118952
0.00128508
0.000912841
0.000822875
0.000862552
0.00104548
0.000991998
0.00126211
0.000913217
0.000868803
0.00152583
0.00107052
0.000672555
0.00135756
0.00242767
0.000975734
0.00136363
0.00119323
0.00114892
0.00130615
0.00146862
0.00091446
0.00120668
0.00141961
0.00140614
0.00143348
0.00119069
0.0012088
0.0007888
0.0013072
0.0014697
0.00136078
0.00110741
0.000933821
0.000966161
0.00152712
0.00137329
0.00182883
0.00157967
0.00103018
0.00115192
0.00123628
0.00118958
0.00210969
0.00122697
0.000966853
0.00131054
0.00107227
0.000980044
0.00101966
0.00119561
0.00135237
0.00113469
0.00154509
0.00159939
0.00141934
0.00100234
0.00110199
0.00111057
0.0010579
0.00109007
0.00148511
0.00139371
0.00118961
0.000875212
0.00125092
0.00135541
0.0012924
0.00140281
0.00122237
0.00131213
0.00158358
0.00121666
0.000935554
0.000948333
0.00101254
0.000735593
0.00103603
0.00120052
0.0014217
0.00166826
0.00121749
0.00143281
0.00144247
0.000704952
0.00168379
0.0014521
0.00112739
0.00163918
0.00146614
0.00143939
0.000574709
0.00131052
0.000976316
0.00130271
0.00137631
0.00128543
0.00143578
0.00110403
0.00135406
0.00118894
0.00124045
0.0014772
0.00141033
0.00156541
0.00135385
0.00128756
0.00080474
0.00110521
0.00115325
0.000826961
0.00183197
0.000873658
0.00134748
0.00115116
0.00113087
0.00142215
0.00184131
0.0018105
0.00102943
0.00121818
0.000823914
0.00125769
0.00157251
0.00136962
0.00161822
0.00201733
0.0015242
0.0014031
0.00117306
0.00085265
0.0011773
0.00102345
0.00150426
0.00143793
0.001136
0.000887802
0.00188701
0.000732229
0.00108517
0.00102506
0.000980056
0.000918142
0.0013406
0.000993416
0.00171577
0.00134916
0.00134741
0.000707957
0.0015264
0.0014675
0.00134785
0.0013106
0.000992261
0.00128491
0.00177504
0.00116882
0.00130729
0.00136753
0.00108454
0.00152221
0.00167044
0.00103078
0.00151573
0.00134947
0.00154717
0.00164825
0.000797912
0.00153722
0.00105839
0.00122091
0.00160819
0.00187581
0.0011005
0.00143551
0.00130332
0.00190955
0.000895658
0.00094655
0.00117954
0.00109732
0.00170963
0.000862201
0.00133473
0.00116834
0.00118509
0.00114692
0.00227631
0.00101919
0.00217875
0.00160558
0.00107922
0.00119252
0.000858837
0.00164964
0.00208015
0.0014883
0.00173907
0.00125836
0.00134818
0.00144889
0.00141089
0.00144783
0.00129922
0.00135728
0.00127037
0.00154539
0.00127846
0.00119538
0.00143256
0.00162953
0.00111059
0.00109698
0.000945985
0.00166467
0.00145566
0.00108338
0.00130288
0.000953113
0.00129943
0.00149272
0.00142452
0.00112598
0.00157814
0.00101738
0.0012532
0.00121311
0.00140328
0.00123036
0.00096452
0.00141584
0.00116697
0.0010157
0.0016574
0.0019394
0.000939403
0.000717071
0.00180685
0.00145251
0.00146467
0.000823861
0.000757639
0.00174863
0.00104199
0.00133978
0.000729189
0.000939372
0.0010813
0.000715404
0.00157722
0.00132666
0.0010758
0.000929687
0.000944465
0.00129248
0.00150599
0.00111323
0.00123375
0.00144933
0.000833518
0.00117753
0.00102479
0.000973804
0.001155
0.00134962
0.000772083
0.000625453
0.00105733
0.00211489
0.0015386
0.00105219
0.00138185
0.000847781
0.000963683
0.000824184
0.00162911
0.0012908
0.00110283
0.00136145
0.00159455
0.00127362
0.00135666
0.00109809
0.00125936
0.00132239
0.00145007
0.00118235
0.00129765
0.00131471
0.0013185
0.00138489
0.00137286
0.00142784
0.00134953
0.00154987
0.000944093
0.000696985
0.000626131
0.00166558
0.00135731
0.00153403
0.00107116
0.00161883
0.00176538
0.00140429
0.00187933
0.00188854
0.0016388
0.001287
0.00130838
0.00140179
0.00141999
0.000876054
0.00152143
0.00119687
0.00126326
0.00125793
0.00101832
0.000670886
0.00148877
0.00119254
0.00131237
0.00106869
0.00121198
0.000858719
0.000983882
0.000898461
0.000807671
0.00100195
0.00148919
0.00154879
0.0011707
0.00101452
0.00119716
0.00148596
0.000909868
0.00090574
0.000851011
0.000854411
0.00119127
0.00158918
0.000813246
0.00155825
0.00146978
0.00116943
0.00146789
0.00106067
0.00108025
0.000753193
0.00156057
0.00135806
0.000916424
0.00144466
0.00134114
0.00100259
0.00169658
0.00113034
0.000988245
0.00153085
0.00152371
0.00182675
0.00110055
0.00117444
0.000930289
0.00124592
0.00125681
0.000968934
0.0010736
0.0009008
0.00104794
0.00143678
0.00106511
0.000839716
0.000976827
0.00106232
0.000898509
0.00122722
0.000922884
0.00133003
0.00179068
0.0011112
0.00120394
0.000961269
0.00135217
0.000809829
0.00163234
0.00102102
0.00137434
0.00129031
0.0013837
0.00108849
0.00134074
0.00163904
0.00209925
0.000827339
0.00154892
0.0012193
0.00170793
0.000871396
0.00106413
0.000994135
0.00120267
0.00104886
0.00105964
0.00109817
0.000878354
0.00122797
0.000831651
0.00110295
0.0016441
0.00146874
0.00093336
0.000829459
0.00142966
0.00134778
0.00136223
0.000656335
0.00132408
0.00122276
0.00105019
0.00131996
0.00122685
0.00117023
0.000902014
0.00147618
0.00118475
0.00153673
0.00100821
0.00110891
0.00132584
0.00149942
0.0011048
0.00123551
0.000796526
0.00090354
0.000542041
0.00102279
0.00142932
0.000809417
0.00136052
0.00163249
0.00171238
0.00145968
0.00145156
0.0027659
0.000962851
0.000799378
0.00152501
0.00135183
0.000911757
0.00208748
0.00211963
0.000836301
0.000783686
0.00149029
0.000762041
0.00134404
0.00162248
0.00134873
0.0014304
0.00169537
0.00164048
0.000855505
0.000970741
0.00105189
0.00137211
0.00156845
0.00125852
0.00214493
0.00139871
0.00127329
0.00138591
0.00142312
0.00134781
0.000759374
0.00109526
0.000913273
0.00115834
0.00141591
0.00115065
0.00105765
0.00125123
0.00117934
0.000989347
0.00140158
0.00102565
0.00161605
0.00076245
0.00125699
0.000872486
0.00175097
0.000728487
0.00214623
0.00220628
0.00182372
0.0014878
0.000882722
0.00120656
0.00146728
0.000852569
0.0012133
0.00117256
0.0009111
0.00100571
0.00162167
0.00171267
0.000939
0.000906961
0.00172136
0.00152402
0.00124581
0.00105985
0.00139731
0.00122833
0.00137212
0.00151475
0.00198278
0.000603515
0.00116894
0.0010909
0.00107883
0.00104581
0.00120587
0.00143052
0.00115835
0.000724787
0.00141189
0.0016668
0.0012
0.00118043
0.000710899
0.000948148
0.00142137
0.00107264
0.000997701
0.00143857
0.00177274
0.00218013
0.00148741
0.00142472
0.00171169
0.00204877
0.00134527
0.0014642
0.000902216
0.00158446
0.00138721
0.00120584
0.00212005
0.0020833
0.00121818
0.00101599
0.00146059
0.00108347
0.00139803
0.00146516
0.00138441
0.000950975
0.00122867
0.00202647
0.00127247
0.00133781
0.00137137
0.00076384
0.00125675
0.00112148
0.00146563
0.0013797
0.00113738
0.000794767
0.00165216
0.00153712
0.0015056
0.00105908
0.0013194
0.00107407
0.00116166
0.00125148
0.00145372
0.00153456
0.000962182
0.000934473
0.00191525
0.00166847
0.00112853
0.00147461
0.00122423
0.00158207
0.00115019
0.00136704
0.00117985
0.0012466
0.00138386
0.00108856
0.000930677
0.000942184
0.00151354
0.00133235
0.000969428
0.000813568
0.00155144
0.00109107
0.00136105
0.00138416
0.00126706
0.00116344
0.00103684
0.000962284
0.00150241
0.000909659
0.000914004
0.00142971
0.00125125
0.00135446
0.00123679
0.00147872
0.0014355
0.00124572
0.00120112
0.00103355
0.000592742
0.00090708
0.00101131
0.000890201
0.00113313
0.001366
0.00100085
0.000937371
0.00136667
0.00142721
0.00105572
0.00104577
0.00150557
0.000954705
0.000924351
0.00098931
0.00104048
0.000919694
0.00163818
0.00155172
0.00161482
0.00126122
0.00129718
0.00130897
0.00083904
0.000752051
0.00145286
0.00133901
0.00132755
0.00148271
0.00104093
0.000993315
0.00116217
0.00111328
0.00118144
0.000808854
0.00126718
0.00117942
0.0013744
0.000772548
0.00184612
0.000695401
0.00131441
0.000877289
0.00169111
0.000484893
0.000679575
0.00218084
0.00225329
0.00113254
0.00103934
0.0011039
0.00123232
0.00130453
0.00169585
0.00121176
0.00106232
0.0012806
0.000929872
0.00132958
0.00095835
0.00064531
0.00068264
0.00115735
0.000896754
0.001486
0.00111428
0.000948019
0.00184647
0.00114503
0.00068855
0.000561209
0.000873317
0.00163644
0.00142894
0.00146465
0.00121188
0.00099298
0.00164145
0.00137158
0.00110059
0.00114053
0.00138826
0.00139412
0.0010915
0.00138192
0.00121637
0.00107139
0.00115019
0.00127719
0.00134041
0.00146505
0.0016178
0.00137846
0.00090445
0.00103452
0.000787481
0.0015765
0.00141274
0.00144944
0.00112548
0.00115743
0.00171483
0.000780907
0.00101824
0.00152394
0.00123233
0.00133774
0.00144012
0.00132383
0.00101616
0.00144202
0.000816195
0.00171194
0.00117742
0.00100599
0.00198597
0.00141326
0.000859979
0.00179147
0.0018124
0.0010601
0.00141442
0.00130211
0.00122655
0.00148428
0.00134475
0.00125456
0.0010058
0.00146076
0.00137649
0.00117997
0.00117867
0.00119629
0.00100799
0.000997577
0.00147088
0.00140942
0.00173282
0.00102941
0.00155697
0.00108969
0.00091417
0.000702602
0.00157774
0.00171072
0.00101071
0.000968787
0.0015952
0.000644097
0.000658667
0.00174729
0.00184776
0.000726073
0.00141784
0.00114525
0.00113516
0.0013519
0.00140358
0.00133018
0.00138432
0.00135298
0.00202007
0.0017088
0.00161035
0.00156935
0.00206531
0.00101733
0.00118934
0.00101962
0.0010896
0.00157295
0.000941458
0.00149439
0.00152202
0.00167194
0.00130903
0.00135368
0.00149409
0.00135301
0.00142998
0.0014784
0.00102689
0.00097412
0.00105393
0.000934434
0.00115965
0.00108926
0.000971539
0.00125995
0.000854381
0.00131323
0.000782552
0.0012669
0.00141457
0.00178513
0.00103806
0.00145065
0.00144518
0.0014761
0.000946523
0.00134032
0.00159713
0.00108501
0.00105223
0.001241
0.00144448
0.00117614
0.0010673
0.00160036
0.00175442
0.00126924
0.00134592
0.00111358
0.00135214
0.000849689
0.00112059
0.00145154
0.000903284
0.00171915
0.00127493
0.00143232
0.00181154
0.0011719
0.00141314
0.000998886
0.0011502
0.00134262
0.000936783
0.0010907
0.00094085
0.00119448
0.00102516
0.00124811
0.000972413
0.00123372
0.00132568
0.00132675
0.000883543
0.00115831
0.00090023
0.00132929
0.000993473
0.00139619
0.00128055
0.000960168
0.00105984
0.00143332
0.00141942
0.00123042
0.00112909
0.00109308
0.00110885
0.0013066
0.00125807
0.00151414
0.000918847
0.00203155
0.00105128
0.000659828
0.000720185
0.00170039
0.00167587
0.000973654
0.0008958
0.00105753
0.00123915
0.000725052
0.00139716
0.00153185
0.00150823
0.00154965
0.00132003
0.00172954
0.00168679
0.0014418
0.00124384
0.00107267
0.000947817
0.00130188
0.000871603
0.00109003
0.00103841
0.000915389
0.000901261
0.00083591
0.0015364
0.00131556
0.00148643
0.00137115
0.00136412
0.00155443
0.00146887
0.000838312
0.00145056
0.00149593
0.00140347
0.00116643
0.00104231
0.00132487
0.00129786
0.00151466
0.00143596
0.00109172
0.00100161
0.00093319
0.00109313
0.00111491
0.00103783
0.00109142
0.000914085
0.000643598
0.00132442
0.00107544
0.000863496
0.00143636
0.00136052
0.00146003
0.00128189
0.000890718
0.00118902
0.00110031
0.000505378
0.00141785
0.00105102
0.000970899
0.00144129
0.00129595
0.00152576
0.00113361
0.00133203
0.00198922
0.000953735
0.00118799
0.000699481
0.000893604
0.00089711
0.00179992
0.00109659
0.00102798
0.00112342
0.00109784
0.00120419
0.00146844
0.00147146
0.000808547
0.00167776
0.000962826
0.00170523
0.00154383
0.000952444
0.00138143
0.00119704
0.000889792
0.00165257
0.00131095
0.00132366
0.00105048
0.000815958
0.00163133
0.00108779
0.00082594
0.00129295
0.000958917
0.000957472
0.00147558
0.000766715
0.00129844
0.0014997
0.00145995
0.00143161
0.00142645
0.00132292
0.00123808
0.00115007
0.000849685
0.00189618
0.000936804
0.00099971
0.00118666
0.00128146
0.00117548
0.00138695
0.00123876
0.0012906
0.00133672
0.00110571
0.00132381
0.00189237
0.000906141
0.00136812
0.000972902
0.00142452
0.000756574
0.00125296
0.00140387
0.00128813
0.00153037
0.00150138
0.00186636
0.00138967
0.00217266
0.001759
0.00155746
0.00145002
0.000873189
0.000981166
0.000784484
0.00117542
0.0011674
0.00136034
0.0013464
0.00110354
0.00134448
0.00103219
0.000791506
0.000835712
0.00120586
0.00145795
0.00155153
0.00142547
0.00102738
0.00137673
0.000849471
0.000993866
0.00151846
0.00148456
0.00160203
0.00127146
0.00124234
0.00105914
0.000882298
0.00131155
0.00134009
0.00138216
0.00164316
0.000975143
0.00118534
0.00121679
0.00156863
0.00115293
0.00175995
0.00131121
0.000875148
0.0011294
0.00125936
0.00151044
0.00104094
0.00129495
0.00119143
0.00123349
0.00121969
0.000919795
0.00120454
0.00124416
0.00153847
0.00107176
0.00147311
0.00173905
0.00143842
0.00125756
0.00156903
0.00136025
0.00157864
0.001046
0.00146089
0.00110892
0.000990706
0.00160684
0.00098137
0.00123651
0.0010307
0.00127329
0.000861232
0.000983097
0.0014507
0.00122667
0.000976305
0.00102232
0.000622596
0.00135382
0.00121209
0.000997246
0.00173877
0.00118036
0.00162541
0.00157735
0.000717831
0.00168779
0.00162062
0.00154521
0.00166981
0.000983685
0.00129605
0.00139634
0.00174411
0.00134595
0.00114976
0.00111896
0.00104987
0.00140219
0.00142216
0.00164189
0.00122661
0.00121039
0.00121958
0.00122545
0.00142694
0.000812411
0.00112707
0.000793424
0.00100732
0.00114563
0.0015665
0.00151106
0.00105712
0.00116291
0.000909579
0.0011209
0.0010774
0.00120182
0.00100977
0.00154492
0.00164287
0.0010906
0.00112592
0.00131663
0.00147855
0.000903731
0.000933261
0.00115386
0.00152621
0.00100946
0.00146699
0.00123757
0.00162776
0.00156576
0.00118964
0.00149368
0.00119879
0.00115402
0.00176973
0.00145303
0.00192059
0.00167705
0.00129831
0.0014468
0.00173495
0.00168058
0.00119318
0.00119607
0.00165132
0.0014563
0.0012097
0.000969542
0.000834158
0.00125404
0.00101269
0.000938615
0.000816183
0.000658927
0.00155871
0.00165642
0.00131778
0.00136271
0.00143268
0.00123029
0.000924812
0.00154917
0.000657786
0.00144932
0.00106176
0.00153032
0.00141208
0.00142706
0.00144807
0.000899681
0.0013661
0.00107328
0.000881095
0.000850463
0.000870617
0.000817775
0.000838923
0.000785921
0.00151594
0.00145246
0.00107294
0.000674735
0.00129495
0.00153271
0.00104245
0.00169039
0.00118009
0.00144059
0.001456
0.000752155
0.00148938
0.0013299
0.00115144
0.00136604
0.00123454
0.00145568
0.00143206
0.00147845
0.00171236
0.00159552
0.00161032
0.000991943
0.00127008
0.00122461
0.00095657
0.00143843
0.000728293
0.00151368
0.0012789
0.000972288
0.000992261
0.00102774
0.00144081
0.00140814
0.00136659
0.00121618
0.00114822
0.00101078
0.00165874
0.00145713
0.00125809
0.0015021
0.00143984
0.00111454
0.00142655
0.00107992
0.00114954
0.00140588
0.0014418
0.00138353
0.00141901
0.00133995
0.00121381
0.00125261
0.00115842
0.00110854
0.000935973
0.00143258
0.00151433
0.000970313
0.00124162
0.00157627
0.00111835
0.00121303
0.00117743
0.00104019
0.00138866
0.000748008
0.000711271
0.00180862
0.000984133
0.0015437
0.00100589
0.00120142
0.000709496
0.0012062
0.00126685
0.00137021
0.00145552
0.00143211
0.00158202
0.00110279
0.00120262
0.0013926
0.00138028
0.00124105
0.00132939
0.0016647
0.00167968
0.00111455
0.00135463
0.000659437
0.00097091
0.00130515
0.00138275
0.00148238
0.000682861
0.00127639
0.000941709
0.00117396
0.00135526
0.00131262
0.00113786
0.00120859
0.00135069
0.00140012
0.00100161
0.001646
0.00105334
0.001479
0.00152918
0.0011851
0.00116701
0.00179561
0.0010818
0.00112835
0.00125332
0.000943898
0.00104848
0.0008806
0.00122368
0.00171292
0.00145439
0.00109072
0.000780433
0.00110078
0.00122523
0.000919907
0.00165909
0.00148678
0.00107248
0.00127491
0.00056946
0.00152203
0.000922114
0.000966594
0.00117799
0.00130234
0.00139246
0.00139331
0.00139291
0.00128541
0.00134948
0.00133328
0.00118063
0.00150243
0.00133749
0.0011338
0.00113813
0.00138197
0.00162459
0.00129725
0.00128228
0.000883166
0.000984777
0.000898149
0.00161511
0.000939139
0.00127622
0.0012427
0.0011363
0.00118042
0.00143458
0.00138191
0.00139066
0.00121348
0.0013749
0.0012292
0.00204282
0.00141305
0.00117049
0.00128546
0.00115721
0.000808922
0.00146567
0.00101559
0.00153753
0.00175984
0.00145438
0.000928877
0.000932694
0.00111216
0.00133007
0.00132715
0.000945342
0.0009316
0.000870265
0.00103535
0.000961697
0.0011055
0.000932428
0.000685265
0.0016623
0.00135232
0.00151142
0.000851165
0.00121015
0.00159737
0.00158018
0.00138692
0.000844531
0.000956168
0.00183352
0.00145132
0.0014074
0.00179851
0.00146797
0.000918975
0.000929254
0.00100684
0.00111878
0.00152296
0.00140983
0.000941338
0.0011376
0.00150726
0.0010294
0.000716074
0.00140691
0.00115061
0.00112185
0.00106207
0.000812049
0.00132676
0.00183392
0.00112163
0.00131818
0.00203458
0.000914695
0.000948165
0.00209943
0.00146528
0.000861789
0.000937696
0.000871139
0.00146398
0.00131001
0.00137876
0.000963206
0.0016293
0.00116868
0.00146002
0.0013038
0.00122294
0.001457
0.00192645
0.000978343
0.00133464
0.00156611
0.00140268
0.00119164
0.000813533
0.00140294
0.000818781
0.00123086
0.000899447
0.00120203
0.00145279
0.00160384
0.00140067
0.0009768
0.00140816
0.00131597
0.00090176
0.00155934
0.000880517
0.0010331
0.00180724
0.00102014
0.00155542
0.000860624
0.0016263
0.00110859
0.00162912
0.00132123
0.0011842
0.00090567
0.000980051
0.00107129
0.00120176
0.00136619
0.00250711
0.00262633
0.00161761
0.00151667
0.00123248
0.00159243
0.00151672
0.00103543
0.000968543
0.00136224
0.000723229
0.000830736
0.000705898
0.00095648
0.00147505
0.00132504
0.00147217
0.000976213
0.00129493
0.00129856
0.00120805
0.0011988
0.00138491
0.000900523
0.00122167
0.00134279
0.000946088
0.000898141
0.00086936
0.000992075
0.00096075
0.000962213
0.00135573
0.00155971
0.00109284
0.000850336
0.0015581
0.00125607
0.00125245
0.00141894
0.00138595
0.00094294
0.00172939
0.00188312
0.00184044
0.00177252
0.000778132
0.00105695
0.000849296
0.00104682
0.00101761
0.000750016
0.00118867
0.000850342
0.00148873
0.00177195
0.00141036
0.000902223
0.00112749
0.00119757
0.00140778
0.000950279
0.00164491
0.00116396
0.00201511
0.000803681
0.00172329
0.000863376
0.00132179
0.00132505
0.00151557
0.00107367
0.00139669
0.0012165
0.00114509
0.00116327
0.00117787
0.00144985
0.00070461
0.00127999
0.00140148
0.00164234
0.000908885
0.00162511
0.00148966
0.00143535
0.00128171
0.000874055
0.000677413
0.00144309
0.00136659
0.0011931
0.00141268
0.00156503
0.0012736
0.00210412
0.00245277
0.0013838
0.00144152
0.0013645
0.00101764
0.00100677
0.000801633
0.000667967
0.000707556
0.00118745
0.000706496
0.00145697
0.00191778
0.00151715
0.00161666
0.00161262
0.0012159
0.000955874
0.00111047
0.00113594
0.00151151
0.000925271
0.000970633
0.00065076
0.000754128
0.00151182
0.00101968
0.0010992
0.0011814
0.00100344
0.000940133
0.00090697
0.000798461
0.000713445
0.00115482
0.000883321
0.00112044
0.00121395
0.00201725
0.00113843
0.000883239
0.00083036
0.000969253
0.000947536
0.00135233
0.000865166
0.00100511
0.0007116
0.00128371
0.00167653
0.000878061
0.00129507
0.00112849
0.000947285
0.00120636
0.00135367
0.0013502
0.000977127
0.00099276
0.00168187
0.000937339
0.00105447
0.0010694
0.00167914
0.00111049
0.000769307
0.00091102
0.00144443
0.00117758
0.000873462
0.000850012
0.00106122
0.00144081
0.00135772
0.000893471
0.000821221
0.00168176
0.000929106
0.00100164
0.00123675
0.000961139
0.00139652
0.00113848
0.000802238
0.000923716
0.000747105
0.000730471
0.000993803
0.000941115
0.00149632
0.00102765
0.00124274
0.000868806
0.000877883
0.00141312
0.00092842
0.00106094
0.000922943
0.000938139
0.00122187
0.0016064
0.00156028
0.0010652
0.000974479
0.000942074
0.00115647
0.000955971
0.00178804
0.00183804
0.00119426
0.00140292
0.00102534
0.000982795
0.00107125
0.00110272
0.00113184
0.00161606
0.000878381
0.000880418
0.000827696
0.00100431
0.000999251
0.00116374
0.000864748
0.0017835
0.00175035
0.00132305
0.00147947
0.00136036
0.00082443
0.00146643
0.00149048
0.00127513
0.00104996
0.00101561
0.000877566
0.0014261
0.00100344
0.0011777
0.000911358
0.00084532
0.000916428
0.0016328
0.00129626
0.000844499
0.00105029
0.00111283
0.00138715
0.000945687
0.00104187
0.00119541
0.00117416
0.000830053
0.00119571
0.000923893
0.00142231
0.00144457
0.00140565
0.00175653
0.000909501
0.000938622
0.000633417
0.00146835
0.00129165
0.00129083
0.000916352
0.000933696
0.00111533
0.000876357
0.00089956
0.000786659
0.00170599
0.00141892
0.000728406
0.00102737
0.00164973
0.00148294
0.0012287
0.00153179
0.00131433
0.000950048
0.0019648
0.00282572
0.00141853
0.00147546
0.00108312
0.00110299
0.000866312
0.00155809
0.00119233
0.00104656
0.00143426
0.000966711
0.00129582
0.00142652
0.000890216
0.000830617
0.00119569
0.00193534
0.00192324
0.001367
0.00110698
0.00121531
0.00115807
0.00102359
0.00100192
0.00134329
0.00156323
0.0018622
0.000836362
0.00110358
0.00140385
0.00137223
0.00125567
0.000711662
0.000897718
0.000914217
0.00105796
0.00113782
0.00141177
0.00138764
0.00159103
0.00122729
0.00124309
0.00148024
0.00111965
0.00105349
0.00112105
0.00144544
0.00127818
0.000926167
0.000915713
0.00173218
0.000699892
0.000804618
0.000982828
0.000995388
0.00085624
0.00168932
0.00143355
0.00180045
0.00125627
0.00111304
0.000822481
0.000946229
0.000721592
0.000672055
0.000829765
0.00152346
0.00179854
0.000829331
0.00123543
0.00074559
0.000815024
0.00115008
0.00125714
0.000828689
0.000833878
0.00135945
0.00123805
0.00107704
0.00156526
0.0011655
0.00115226
0.000849359
0.00104411
0.00129471
0.00178763
0.00154146
0.000760535
0.000899427
0.000822982
0.001291
0.000732008
0.00137164
0.0014925
0.00150624
0.00161197
0.00154732
0.000784504
0.000733288
0.00156535
0.00162668
0.00135485
0.00126071
0.00107855
0.00178534
0.000918337
0.000872052
0.000790729
0.00135643
0.00112931
0.00125829
0.00120455
0.00113067
0.000862425
0.00157035
0.00140363
0.00110963
0.00140328
0.00116965
0.00115148
0.00143564
0.0014659
0.0014404
0.00124104
0.00107303
0.00103473
0.00145125
0.00135169
0.00107613
0.00117278
0.000686959
0.00105815
0.000925244
0.00097014
0.000492456
0.00136894
0.00128805
0.00261375
0.00157733
0.0014089
0.00100901
0.00100491
0.00101102
0.0010462
0.00102121
0.000795593
0.000729489
0.00160618
0.00143427
0.00116212
0.0017298
0.00128413
0.00137146
0.00108003
0.000774358
0.00105593
0.000762116
0.00108117
0.000733606
0.00159262
0.00156271
0.00246941
0.00120443
0.000844247
0.000828087
0.00110831
0.000700035
0.000699549
0.00135776
0.00111318
0.000901623
0.00118719
0.00115305
0.00158088
0.00176671
0.000927977
0.00137215
0.00171663
0.000853405
0.000739001
0.00144916
0.00149544
0.000943113
0.00157171
0.000739866
0.00146914
0.00110287
0.000986037
0.00100091
0.000652823
0.00244073
0.000758713
0.00152017
0.000887471
0.00262446
0.000944756
0.00158772
0.00835689
0.00492409
0.00751646
0.0108247
0.00323288
0.00751842
0.00768934
0.00903289
0.0136141
0.00623584
0.00801492
0.00677241
0.00271591
0.00725741
0.00758858
0.00565446
0.00530881
0.00626402
0.0051212
0.00336757
0.0103186
0.0141428
0.0121589
0.0115878
0.0057552
0.00602643
0.00640872
0.0108229
0.0124367
0.00664585
0.00597988
0.00476468
0.0140781
0.00700893
0.0086994
0.00938701
0.00562026
0.00762825
0.00571706
0.00324955
0.00408691
0.00457571
0.00546084
0.0129338
0.00295114
0.00867216
0.00878779
0.00777612
0.0114598
0.0081703
0.00907698
0.00582519
0.00759668
0.00887718
0.00972489
0.00415562
0.00946204
0.00932822
0.00817199
0.00269118
0.01187
0.0100578
0.0105327
0.00697771
0.00896568
0.00800341
0.00836443
0.0042113
0.00831834
0.0135053
0.00463285
0.0109708
0.00755549
0.00689033
0.00672912
0.0124536
0.0137808
0.0125342
0.0121431
0.00444895
0.00691366
0.00901652
0.00615794
0.00488079
0.00649357
0.00738328
0.00858726
0.00649274
0.00807942
0.0110741
0.00980612
0.00548863
0.00332828
0.0074995
0.00657183
0.00641829
0.0106607
0.00691277
0.00387622
0.00767996
0.00960668
0.00484447
0.00799802
0.00469803
0.00566939
0.0213308
0.0109358
0.0100881
0.00550148
0.00634697
0.00390564
0.0061459
0.00366258
0.00501679
0.0112253
0.00994046
0.00875957
0.014077
0.00710104
0.00670926
0.00619267
0.00922294
0.00671105
0.00400373
0.00922471
0.00526243
0.00503473
0.00398206
0.00500488
0.00381232
0.00462786
0.00622905
0.00616784
0.0124709
0.0124949
0.0105482
0.005473
0.00771563
0.012313
0.00421852
0.00213203
0.00947599
0.00802314
0.00805508
0.00698404
0.00549679
0.00827839
0.0138575
0.0104675
0.0125436
0.0125474
0.0100051
0.0103953
0.00855719
0.00385359
0.0056704
0.00497059
0.00797482
0.0114967
0.0120629
0.00749416
0.0124885
0.0168293
0.0150593
0.0118531
0.00809736
0.00796031
0.00677829
0.00704396
0.0081845
0.0114923
0.0144306
0.00609529
0.00473763
0.0083273
0.00567025
0.00885684
0.010068
0.00957666
0.00810319
0.0115799
0.00686961
0.00579608
0.00836356
0.00484361
0.00930653
0.00407408
0.00873035
0.008561
0.00531282
0.00822008
0.00227831
0.00382763
0.00781839
0.0105584
0.00890377
0.00825346
0.00928612
0.00894957
0.00485266
0.00484797
0.00540515
0.00597476
0.00466991
0.00364329
0.0103087
0.00868731
0.0105309
0.00509781
0.00453302
0.0118209
0.00726483
0.0114478
0.0128853
0.0124224
0.00911807
0.00646775
0.0068764
0.00904317
0.00541475
0.00443109
0.00916036
0.00607802
0.0050708
0.0113552
0.00829682
0.0055217
0.0060136
0.00750715
0.00485997
0.00595264
0.00732579
0.00765329
0.00902428
0.00550486
0.00562496
0.0091403
0.0064031
0.00429027
0.00942119
0.0176917
0.00725707
0.00836092
0.00574913
0.00694045
0.00636729
0.0099196
0.00567775
0.00672432
0.0091718
0.00961944
0.00679642
0.00694041
0.00663231
0.00409772
0.00807694
0.0052625
0.00936597
0.00555875
0.00608763
0.00647265
0.00971909
0.00359604
0.0131143
0.0108244
0.00372919
0.00572997
0.00916196
0.00248451
0.0138816
0.0045432
0.0062625
0.00774973
0.0038051
0.0054099
0.00487296
0.00733874
0.00638545
0.0083023
0.0131212
0.0104043
0.00669605
0.00475797
0.00452691
0.0059031
0.00695005
0.00717006
0.0078957
0.00868193
0.0079006
0.00306605
0.00856333
0.00734662
0.00731877
0.0103396
0.00532446
0.00923125
0.0107022
0.00819309
0.00544606
0.00361169
0.0073396
0.00284769
0.00718287
0.00686708
0.0060373
0.013775
0.00547513
0.00880186
0.0103877
0.0039222
0.00972803
0.0076777
0.00477808
0.00793411
0.00938359
0.00717257
0.00554841
0.0104811
0.00633478
0.00735958
0.00642561
0.0077668
0.0083267
0.00761066
0.00855255
0.00657357
0.00686941
0.00971896
0.00750863
0.00726108
0.0115786
0.00566256
0.0044641
0.00718708
0.0068981
0.00524115
0.0118681
0.00518748
0.00769291
0.00655943
0.00805979
0.00822544
0.0199443
0.01374
0.00684431
0.00877536
0.00778146
0.00605375
0.00691981
0.00745782
0.00885242
0.0151085
0.00922872
0.0111011
0.00572263
0.00248317
0.0059838
0.00864006
0.0106689
0.00959914
0.00793385
0.00582386
0.0113399
0.0055411
0.00638731
0.00500164
0.00432522
0.00416925
0.00683353
0.00680171
0.00838714
0.0100368
0.00955017
0.00304793
0.00682625
0.00883671
0.00544146
0.00627326
0.00593988
0.006335
0.0108667
0.00726237
0.00911564
0.00481911
0.00842871
0.0132369
0.00879011
0.0069401
0.0102724
0.00876279
0.0108946
0.0120378
0.00606522
0.00984866
0.00612352
0.00533624
0.00804301
0.00997403
0.0074272
0.0084577
0.00577406
0.0141539
0.00447762
0.00551595
0.00783768
0.0108673
0.0139531
0.00661687
0.00656591
0.00588782
0.00721159
0.00420277
0.0165472
0.00703747
0.0158783
0.0114429
0.00245115
0.00722608
0.00617391
0.01271
0.00989343
0.00976334
0.0100084
0.00750333
0.00887698
0.00508456
0.00633507
0.0039358
0.00799892
0.0076404
0.00900709
0.00869025
0.00762043
0.00438215
0.0102161
0.0145634
0.00668151
0.00524963
0.00928821
0.00702089
0.00780811
0.00457003
0.00519929
0.00500481