/*--------------------------------*- C++ -*----------------------------------*\
| =========                 |                                                 |
| \\      /  F ield         | OpenFOAM: The Open Source CFD Toolbox           |
|  \\    /   O peration     | Version:  2212                                  |
|   \\  /    A nd           | Website:  www.openfoam.com                      |
|    \\/     M anipulation  |                                                 |
\*---------------------------------------------------------------------------*/
FoamFile
{
    version     2.0;
    format      ascii;
    arch        "LSB;label=32;scalar=64";
    class       volScalarField;
    location    "10";
    object      p;
}
// * * * * * * * * * * * * * * * * * * * * * * * * * * * * * * * * * * * * * //

dimensions      [0 2 -2 0 0 0 0];

internalField   nonuniform List<scalar> 
76615
(
-393.576
-483.174
-120.282
-992.297
-465.538
-771.973
-908.782
-242.35
-977.836
-904.561
-350.82
-109.88
-355.709
-549.945
-543.759
-920.595
-128.875
-885.76
-899.416
-127.194
-1022.99
-834.517
-854.858
-1026.96
-405.885
-823.528
-818.711
-1027.7
-851.746
-468.311
-373.303
-79.4476
-705.447
-864.136
-834.79
-1041.91
-210.51
-650.926
-679.635
-257.114
-258.345
-213.908
-877.636
-1000.71
-198.361
-665.455
-740.124
-736.236
-727.646
-849.933
-517.269
-450.513
-795.733
-788.387
-756.194
-497.761
-528.978
-705.668
-1032.81
-275.361
-732.493
-755.313
-888.6
-862.977
-779.127
-835.96
-812.835
-265.33
-825.954
-977.832
-877.636
-1028.76
-754.942
-864.956
-798.245
-892.282
-1028.3
-934.292
-913.952
-458.506
-935.926
-519.666
-811.988
-811.293
-807.073
-806.584
-864.656
-880.603
-761.077
-887.27
-236.798
-877.851
-879.908
-678.381
-886.056
-391.573
-390.39
-503.853
-889.565
-889.394
-834.172
-402.028
-854.431
-878.076
-879.403
-648.752
-724.917
-570.256
-746.33
-802.024
-762.493
-889.949
-243.834
-241.314
-200.957
-814.04
-311.177
-785.535
-727.294
-817.886
-934.615
-90.9084
-939.718
-276.41
-781.541
-895.655
-896.5
-760.596
-755.592
-258.189
-232.898
-220.113
-864.473
-1009.14
-994.656
-823.782
-896.049
-858.127
-163.301
-256.769
-423.015
-374.801
-837.677
-478.203
-819.633
-908.431
-877.526
-752.509
-796.139
-811.424
-710.16
-1051.21
-1052.59
-383.614
-891.386
-880.384
-836.864
-778.29
-753.544
-758.256
-824.058
-1000.59
-1007.9
-1005.54
-828.324
-580.272
-739.198
-210.592
-837.063
-360.603
-1046.26
-787.287
-810.93
-812.161
-763.98
-848.214
-440.501
-832.693
-241.442
-536.205
-946.087
-726.579
-798.807
-884.699
-350.429
-836.838
-760.561
-454.186
-835.448
-832.094
-809.484
-456.124
-920.788
-238.517
-754.238
-717.282
-814.217
-813.095
-830.57
-592.3
-776.998
-480.94
-961.238
-417.511
-425.28
-426.204
-78.2849
-451.804
-828.68
-833.682
-892.248
-243.963
-220.042
-968.079
-964.785
-722.24
-762.549
-644.959
-854.412
-783.87
-876.234
-228.221
-243.066
-868.83
-711.933
-716.772
-695.39
-838.302
-427.485
-524.627
-593.98
-877.487
-380.327
-831.82
-226.389
-582.661
-846.78
-790.185
-245.033
-716.543
-1006.41
-514.077
-487.854
-858.174
-876.857
-753.482
-1019.03
-408.455
-797.219
-766.553
-767.069
-848.127
-677.735
-862.21
-515.165
-461.594
-820.214
-219.859
-450.247
-422.479
-376.11
-743.995
-770.066
-885.591
-847.453
-526.791
-861.818
-458.84
-785.664
-899.676
-790.198
-808.615
-799.256
-266.266
-471.909
-824.833
-835.212
-692.108
-773.947
-628.83
-799.864
-688.306
-867.403
-869.73
-562.092
-415.846
-426.879
-801.904
-754.698
-737.176
-870.721
-763.789
-829.293
-785.032
-833.476
-153.795
-748.988
-1014.51
-238.121
-446.321
-495.979
-861.998
-441.107
-402.219
-725.926
-255.487
-693.297
-870.747
-777.924
-347.639
-269.339
-823.66
-520.204
-593.606
-832.57
-760.966
-862.246
-248.652
-239.107
-804.268
-835.276
-903.315
-784.009
-775.959
-203.199
-475.424
-810.113
-805.696
-665.314
-795.316
-827.119
-351.075
-835.514
-917.97
-591.547
-611.003
-398.67
-882.144
-333.483
-777.492
-588.655
-605.755
-869.058
-716.9
-1014.19
-437.413
-891.058
-859.412
-791.605
-735.108
-822.341
-775.916
-911.419
-833.283
-834.636
-837.89
-333.669
-905.111
-122.782
-592.166
-714.36
-222.07
-243.852
-1030.32
-791.297
-593.245
-570.012
-834.779
-815.305
-802.179
-191.848
-865.314
-792.343
-782.929
-416.85
-504.039
-442.547
-893.18
-841.262
-244.891
-833.581
-237.47
-838.97
-676.069
-831.764
-394.445
-810.984
-891.31
-426.472
-673.979
-597.236
-887.888
-919.983
-269.021
-560.516
-235.149
-837.596
-815.959
-1045.35
-142.694
-833.941
-853.109
-908.119
-257.836
-208.178
-484.484
-474.299
-664.031
-632.409
-843.807
-890.554
-229.462
-494.07
-1015.71
-439.434
-1006.1
-306.12
-773.968
-759.104
-328.777
-212.215
-859.861
-821.751
-773.014
-741.832
-752.263
-833.644
-872.523
-937.369
-436.927
-691.427
-822.818
-571.873
-656.129
-709.189
-644.511
-668.092
-465.001
-894.356
-899.11
-654.543
-803.751
-910.622
-425.169
-303.211
-807.203
-831.852
-786.046
-775.072
-150.216
-752.307
-741.202
-735.931
-720.9
-811.103
-806.021
-729.369
-833.196
-840.979
-861.576
-863.477
-227.951
-517.024
-235.346
-948.387
-768.673
-898.28
-304.382
-762.432
-366.387
-733.324
-273.102
-254.457
-407.769
-337.972
-820.289
-824.636
-803.357
-840.712
-136.581
-717.234
-729.503
-789.732
-843.389
-780.898
-572.933
-913.74
-865.067
-851.57
-773.079
-778.876
-532.256
-505.195
-367.3
-741.709
-709.784
-401.276
-702.488
-182.571
-181.159
-262.073
-410.075
-326.21
-250.825
-683.719
-257.867
-340.71
-624.373
-746.284
-362.764
-836.845
-832.128
-842.906
-391.419
-767.515
-754.728
-780.864
-814.036
-790.113
-743.328
-709.932
-436.919
-404.053
-502.938
-336.76
-317.707
-343.255
-479.412
-790.554
-806.976
-869.276
-831.275
-821.547
-256.701
-638.392
-621.205
-776.83
-776.498
-512.628
-651.673
-811.674
-558.012
-798.47
-249.433
-233.23
-875.368
-833.284
-830.36
-797.925
-813.812
-175.936
-164.275
-394.195
-435.572
-423
-588.093
-854.22
-871.695
-899.422
-416.761
-848.813
-724.175
-590.52
-586.845
-851.597
-814.927
-590.333
-839.154
-729.319
-775.401
-385.688
-131.397
-806.497
-807.8
-787.39
-543.814
-431
-823.332
-155.74
-840.216
-265.094
-776.858
-804.054
-1008.42
-397.253
-857.048
-906.441
-801.852
-782.549
-941.665
-821.962
-775.795
-429.501
-860.277
-553.014
-888.991
-834.89
-367.285
-218.033
-626.982
-615.82
-400.916
-825.614
-917.643
-792.924
-779.688
-513.154
-531.148
-457.139
-836.198
-126.209
-740.62
-930.539
-795.442
-821.068
-798.095
-229.187
-1025.79
-923.298
-798.476
-486.999
-177.052
-908.685
-834.658
-240.643
-217.097
-808.428
-806.972
-899.663
-475.382
-159.739
-124.395
-782.709
-141.991
-915.552
-778.195
-258.97
-174.783
-134.25
-479.588
-469.355
-741.719
-233.757
-821.727
-794.369
-654.214
-843.642
-854.162
-898.792
-301.612
-874.079
-866.946
-778.685
-118.716
-451.889
-734.955
-331.733
-186.894
-393.927
-802.194
-434.611
-869.264
-237.945
-760.427
-241.165
-841.034
-838.548
-734.254
-789.895
-873.969
-934.271
-599.532
-427.885
-682.381
-666.854
-487.652
-910.764
-906.234
-547.683
-807.096
-762.499
-528.238
-793.912
-860.46
-731.521
-505.896
-832.716
-787.213
-434.079
-948.781
-75.5475
-824.692
-712.394
-385.228
-941.257
-677.213
-716.11
-720.8
-725.845
-831.487
-287.956
-880.523
-816.552
-803.953
-291.847
-873.104
-820.109
-802.755
-873.583
-496.748
-340.588
-597.528
-1013.2
-419.213
-674.6
-509.545
-754.063
-271.011
-252.887
-960.964
-245.856
-946.303
-211.318
-960.112
-947.646
-401.726
-783.607
-445.752
-362.951
-373.847
-886.625
-837.721
-160.475
-185.173
-739.699
-374.038
-830.299
-835.173
-804.562
-767.823
-728.16
-742.268
-949.578
-426.204
-830.854
-886.424
-809.233
-841.624
-817.574
-733.235
-617.578
-136.498
-787.488
-842.372
-833.307
-227.691
-369.428
-65.3997
-796.705
-426.64
-863.154
-427.775
-259.298
-982.557
-690.515
-728.256
-749.442
-794.529
-710.166
-390.207
-856.026
-271.436
-160.255
-796.646
-1050.77
-1060.27
-788.681
-438.266
-958.51
-551.273
-834.994
-764.181
-765.432
-266.322
-81.0826
-935.831
-964.024
-504.28
-794.125
-395.298
-822.706
-235.194
-779.264
-769.25
-757.807
-526.415
-756.784
-631.784
-870.737
-777.757
-787.618
-248.883
-234.341
-358.777
-956.331
-815.762
-210.629
-231.502
-1035.43
-1052
-360.809
-1026.19
-759.015
-731.608
-820.494
-778.753
-809.185
-501.224
-762.671
-740.686
-367.086
-230.196
-374.701
-301.328
-212.371
-376.452
-269.083
-802.822
-624.681
-780.426
-403.941
-506.611
-875.503
-548.994
-795.197
-187.84
-226.659
-870.301
-191.193
-803.303
-788.772
-983.695
-778.469
-809.098
-838.527
-649.369
-250.156
-338.703
-325.116
-394.859
-435.561
-204.097
-853.859
-402.528
-531.988
-424.61
-412.927
-708.593
-688.901
-832.202
-467.548
-471.951
-301.542
-310.305
-485.231
-653.803
-678.717
-776.745
-368.863
-481.488
-96.3222
-797.469
-873.146
-753.267
-847.909
-762.896
-511.683
-915.424
-877.344
-258.875
-814.329
-145.419
-400.48
-1023.5
-783.543
-496.175
-818.985
-342.754
-429.123
-601.503
-799.886
-392.949
-432.459
-926.566
-191.707
-823.075
-132.112
-483.68
-424.204
-427.707
-934.07
-924.426
-513.788
-810.188
-835.556
-360.23
-451.67
-268.182
-268.04
-847.403
-844.644
-873.665
-838.979
-832.056
-225.275
-792.931
-753.457
-775.695
-260.006
-757.542
-457.703
-780.66
-805.763
-859.819
-946.055
-378.948
-243.944
-320.26
-236.492
-660.797
-772.855
-785.609
-859.63
-913.509
-922.213
-756.369
-757.042
-699.271
-561.448
-651.467
-387.97
-237.476
-458.285
-815.154
-650.967
-716.667
-518.718
-309.067
-689.593
-818.972
-789.276
-763.199
-814.839
-804.872
-452.872
-817.874
-795.416
-815.971
-155.689
-1065.2
-391.478
-319.623
-793.277
-659.256
-435.786
-939.27
-767.244
-933.806
-746.268
-706.858
-814.368
-870.846
-816.581
-469.292
-851.671
-840.393
-832.744
-832.296
-775.63
-816.393
-252.195
-250.191
-803.781
-774.172
-789.901
-127.226
-800.958
-628.509
-602.236
-116.536
-507.898
-765.114
-389.149
-444.614
-222.665
-411.499
-401.765
-871.376
-857.948
-114.199
-746.656
-430.29
-536.235
-753.551
-795.598
-776.464
-768.998
-802.371
-817.436
-810.631
-943.71
-943.939
-891.4
-829.458
-753.64
-703.018
-817.975
-776.761
-846.154
-652.931
-775.247
-959.733
-869.982
-577.923
-790.609
-717.363
-727.734
-891.752
-705.848
-808.767
-907.87
-898.763
-836.828
-212.341
-817.11
-825.019
-853.659
-831.254
-266.856
-845.592
-927.975
-923.16
-403.973
-679.423
-776.108
-798.786
-144.054
-840.506
-667.012
-381.174
-190.285
-1022.55
-822.806
-804.786
-892.045
-257.145
-234.328
-375.838
-770.413
-801.817
-699.485
-434.724
-816.511
-804.581
-405.252
-781.259
-450.121
-769.527
-779.285
-301.224
-787.059
-846.695
-475.818
-795.908
-855.068
-657.579
-857.192
-441.828
-239.505
-891.332
-865.007
-804.37
-820.524
-846.532
-240.205
-917.756
-96.0336
-828.761
-871.581
-863.298
-295.309
-478.349
-488.372
-825.36
-795.789
-411.942
-130.929
-871.978
-249.355
-777.379
-816.687
-818.848
-830.991
-792.643
-838.912
-328.949
-107.616
-782.937
-785.163
-502.576
-222.164
-399.611
-414.072
-235.88
-1038.78
-1053.95
-884.325
-492.431
-880.113
-1046.21
-736.99
-748.747
-221.759
-767.566
-270.86
-856.089
-543.86
-837.491
-445.65
-283.576
-87.5719
-768.481
-786.895
-755.666
-778.15
-716.086
-694.011
-836.118
-251.709
-212.18
-877.478
-831.732
-791.817
-871.812
-860.157
-724.542
-414.87
-654.872
-699.751
-362.051
-215.529
-877.763
-533.532
-499.531
-405.245
-208.688
-387.488
-393.251
-368.895
-353.558
-491.381
-779.492
-788.697
-790.829
-742.508
-852.26
-653.752
-920.216
-760.783
-794.734
-184.744
-179.429
-751.354
-666.355
-363.332
-189.861
-791.517
-1045.06
-181.873
-850.562
-316.303
-157.275
-193.108
-160.518
-283.362
-389.49
-670.214
-821.237
-735
-686.416
-660.2
-288.648
-846.733
-845.279
-229.855
-712.967
-115.478
-417.31
-847.699
-650.069
-923.977
-697.312
-784.47
-865.521
-246.363
-490.143
-845.524
-248.691
-781.547
-887.14
-874.131
-501.659
-220.848
-654.236
-504.05
-484.276
-155.513
-453.444
-802.096
-801.621
-847.48
-573.384
-784.447
-405.912
-509.477
-554.075
-467.586
-461.687
-760.191
-703.645
-773.431
-789.42
-442.4
-557.067
-752.202
-184.102
-725.217
-843.729
-705.19
-501.489
-432.661
-708.367
-401.554
-742.563
-798.05
-900.151
-531
-972.342
-996.078
-236.552
-687.352
-334.115
-516.312
-103.378
-721.296
-207.275
-196.312
-842.209
-425.318
-901.267
-356.247
-236.413
-254.72
-857.028
-821.156
-267.269
-456.262
-410.939
-856.947
-220.265
-152.366
-828.677
-795.341
-832.663
-667.173
-685.157
-953.587
-130.373
-480.158
-475.351
-810.92
-709.174
-410.311
-798.269
-795.565
-810.518
-825.526
-713.584
-409.989
-231.418
-421.681
-671.812
-530.457
-847.62
-851.992
-824.553
-835.317
-832.047
-904.115
-836.916
-778.448
-683.347
-565.473
-681.652
-392.42
-723.069
-606.409
-206.267
-897.491
-726.318
-424.766
-569.433
-293.366
-535.246
-687.083
-98.284
-463.88
-818.975
-631.898
-143.563
-484.469
-684.355
-233.819
-204.35
-166.164
-399.789
-688.208
-810.681
-796.244
-749.324
-683.333
-694.262
-710.231
-765.386
-727.079
-690.702
-927.339
-752.814
-180.819
-713.353
-771.34
-268.607
-748.758
-750.855
-806.707
-891.383
-458.239
-390.328
-452.834
-798.554
-846.763
-600.743
-388.258
-778.886
-404.982
-466.156
-131.939
-784.412
-809.679
-648.175
-593.743
-179.791
-472.057
-858.036
-407.687
-416.998
-794.463
-812.063
-632.752
-635.745
-172.605
-508.667
-502.003
-746.326
-209.017
-167.954
-580.114
-762.776
-391.983
-489.729
-557.604
-763.865
-711.516
-610.629
-698.322
-814.891
-800.252
-839.715
-665.372
-900.241
-698.076
-605.223
-367.775
-734.848
-715.987
-628.958
-688.044
-730.418
-765.27
-830.318
-135.426
-161.381
-693.612
-303.95
-261.47
-245.698
-270.532
-759.314
-737.491
-225.372
-778.146
-799.537
-521.232
-489.709
-295.408
-417.557
-652.193
-524.449
-338.031
-335.792
-858.178
-892.537
-309.316
-376.472
-306.455
-328.351
-534.277
-514.999
-518.052
-516.034
-516.7
-262.164
-578.867
-836.157
-83.8224
-605.358
-735.506
-553.076
-763.375
-362.577
-358.102
-858.966
-101.226
-823.511
-795.687
-796.925
-642.348
-934.471
-816.966
-608.225
-753.335
-745.162
-734.362
-719.678
-396.436
-391.397
-506.941
-233.978
-776.336
-412.358
-472.221
-733.242
-222.617
-687.922
-237.869
-669.63
-635.985
-578.242
-632.387
-602.596
-871.407
-723.683
-725.46
-550.979
-624.075
-257.851
-872.982
-687.611
-399.975
-562.486
-526.943
-606.157
-640.938
-585.59
-565.753
-136.9
-855.379
-841.844
-812.618
-525.014
-779.45
-761.51
-943.78
-816.444
-327.072
-828.71
-811.697
-782.899
-215.768
-739.222
-394.298
-266.733
-760.764
-907.208
-723.528
-358.038
-538.972
-362.833
-821.065
-873.544
-810.474
-792.091
-645.532
-680.229
-349.622
-380.05
-682.693
-658.249
-845.938
-848.81
-742.346
-746.548
-506.014
-690.752
-374.284
-356.662
-808.616
-645.926
-629.859
-61.6184
-534.437
-334.468
-651.828
-502.786
-522.195
-531.856
-521.82
-497.521
-516.033
-482.614
-739.943
-875.093
-626.055
-637.19
-777.674
-509.165
-710.257
-812.623
-348.197
-652.136
-215.087
-525.438
-519.729
-218.403
-812.563
-722.382
-536.699
-786.663
-887.483
-664.023
-253.724
-790.541
-402.821
-790.49
-804.578
-408.727
-527.873
-246.213
-490.877
-522.177
-1048.53
-734.64
-513.443
-771.211
-483.081
-496.92
-516.442
-776.118
-832.942
-799.777
-138.617
-562.17
-501.925
-731.985
-766.183
-99.1702
-875.324
-869.669
-113.853
-609.094
-293.287
-241.72
-247.589
-786.094
-834.997
-191.633
-494.094
-490.94
-876.205
-843.711
-757.391
-927.648
-617.992
-763.72
-412.883
-524.548
-208.879
-762.258
-189.509
-835.139
-895.635
-446.369
-101.243
-255.863
-560.967
-799.187
-708.73
-211.802
-242.04
-231.909
-271.389
-845.589
-825.375
-861.807
-190.443
-807.892
-362.102
-593.772
-288.354
-753.325
-774.39
-835.99
-837.519
-599.318
-319.86
-776.279
-557.934
-512.399
-864.682
-908.27
-167.184
-169.086
-863.618
-864.979
-743.546
-291.739
-391.899
-444.434
-404.699
-865.59
-316.872
-620.648
-735.465
-856.538
-666.828
-187.247
-459.594
-834.151
-902.71
-207.828
-818.483
-833.853
-837.815
-1019.91
-1003.73
-313.792
-822.076
-865.632
-868.141
-553.593
-1058.45
-183.206
-281.155
-763.72
-724.119
-793.957
-463.685
-606.716
-819.468
-209.319
-681.255
-710.495
-840.034
-527.625
-848.245
-863.945
-217.866
-193.541
-217.217
-481.166
-656.128
-741.609
-784.202
-235.746
-654.761
-563.964
-774.597
-822.549
-525.219
-519.574
-791.481
-435.729
-441.48
-288.477
-823.62
-226.752
-969.234
-814.471
-816.36
-168.061
-232.683
-215.569
-460.623
-478.119
-869.771
-876.848
-819.968
-813.381
-237.188
-956.597
-965.618
-220.512
-243.629
-263.781
-93.0273
-254.246
-264.233
-863.03
-838.812
-835.203
-828.478
-384.041
-726.433
-470.491
-161.446
-447.983
-466.468
-244.041
-308.986
-480.309
-270.815
-854.924
-97.3356
-370.577
-238.201
-198.33
-773.656
-938.684
-263.629
-246.746
-778.334
-640.879
-560.65
-483.584
-482.373
-255.817
-821.998
-712.075
-784.361
-812.656
-363.019
-265.769
-258.427
-266.904
-817.011
-314.418
-354.299
-246.135
-773.196
-983.507
-1007.1
-848.117
-393.358
-242.334
-225.096
-250.244
-951.551
-946.568
-990.707
-309.39
-764.754
-210.243
-656.626
-838.214
-835.931
-487.216
-715.318
-242.663
-242.966
-662.692
-245.419
-803.843
-878.063
-249.848
-852.21
-798.095
-245.15
-991.4
-976.491
-577.576
-571.371
-892.165
-312.433
-526.209
-434.696
-398.323
-515.683
-421.135
-798.144
-967.117
-987.332
-518.515
-606.741
-444.761
-116.78
-172.683
-242.887
-396.347
-402.078
-546.219
-263.572
-562.981
-854.752
-898.176
-871.183
-877.77
-218.486
-228.346
-283.163
-279.842
-734.247
-245.066
-115.027
-196.214
-847.771
-289.875
-221.823
-885.357
-533.996
-216.662
-255.574
-772.578
-202.139
-254.038
-844.499
-868.058
-245.296
-237.87
-788.725
-229.56
-224.629
-215.21
-224.371
-231.846
-806.378
-268.485
-222.21
-243.211
-812.51
-769.22
-269.38
-717.887
-246.477
-203.328
-243.112
-229.99
-775.216
-177.368
-204.176
-844.479
-240.907
-229.323
-236.583
-239.249
-241.467
-246.892
-237.681
-570.357
-219.764
-259.429
-262.426
-234.111
-792.694
-513.046
-302.883
-409.727
-808.803
-638.916
-675.08
-514.359
-430.441
-321.528
-1009.13
-243.537
-255.676
-259.456
-254.843
-760.7
-174.065
-762.273
-700.736
-762.553
-896.822
-884.485
-768.357
-158.258
-851.419
-853.342
-201.509
-850.359
-850.855
-651.906
-792.548
-822.957
-507.822
-234.147
-209.328
-870.133
-871.31
-140.924
-538.125
-870.055
-869.225
-198.837
-915.997
-917.323
-471.672
-529.83
-786.481
-772.976
-211.863
-878.06
-887.022
-825.497
-850.363
-847.263
-1024.4
-1020.65
-684.06
-240.48
-846.426
-824.731
-499.594
-272.079
-130.491
-271.465
-111.795
-382.205
-413.557
-189.724
-232.496
-234.012
-871.858
-849.85
-490.385
-259.342
-321.325
-304.356
-292.158
-222.012
-242.915
-252.991
-228.65
-786.801
-275.295
-636.552
-657.484
-494.522
-765.771
-217.175
-215.351
-411.837
-1062.94
-580.731
-787.347
-452.322
-417.201
-219.739
-299.069
-237.804
-198.249
-822.318
-200.731
-275.051
-484.009
-761.766
-780.342
-1031.62
-1037.88
-780.592
-198.125
-869.189
-876.315
-713.103
-217.91
-267.224
-816.287
-202.822
-227.33
-860.021
-863.764
-731.358
-484.279
-463.675
-475.59
-263.609
-320.196
-808.181
-778.916
-783.141
-783.58
-439.562
-245.108
-790.509
-453.67
-449.172
-452.554
-866.773
-811.818
-281.702
-606.208
-794.488
-427.674
-225.518
-310.041
-210.513
-220.568
-259.136
-477.55
-667.259
-682.182
-931.605
-864.631
-871.037
-120.964
-197.457
-205.723
-193.479
-720.59
-782.987
-860.557
-626.771
-184.997
-302.871
-290.051
-273.248
-229.11
-882.841
-337.241
-911.073
-255.919
-786.286
-531.492
-848.872
-222.568
-467.911
-460.893
-292.328
-725.871
-964.209
-233.831
-531.461
-259.615
-297.45
-423.928
-792.975
-247.876
-893.76
-832.959
-838.752
-241.21
-437.499
-231.037
-166.359
-263.573
-882.065
-694.222
-737
-597.307
-314.832
-198.092
-239.885
-580.305
-246.113
-582.687
-611.723
-467.861
-957.153
-961.599
-808.889
-303.331
-219.04
-207.048
-809.562
-810.04
-370.017
-802.4
-266.704
-265.332
-776.929
-513.795
-219.374
-795.061
-262.077
-277.744
-266.744
-233.282
-801.285
-317.819
-502.054
-405.28
-824.562
-773.655
-477.605
-433.511
-864.145
-857.493
-278.359
-451.229
-760.262
-182.395
-806.497
-318.36
-354.632
-277.536
-405.03
-361.637
-748.349
-857.973
-156.581
-479.025
-275.486
-303.373
-524.504
-349.542
-811.964
-358.685
-305.615
-194.248
-469.975
-414.471
-163.407
-1113.8
-462.964
-763.637
-195.022
-308.253
-330.661
-153.052
-469.609
-228.405
-397.366
-411.153
-136.741
-153.29
-204.611
-212.297
-368.794
-308.938
-304.842
-461.045
-381.746
-245.633
-418.514
-257.505
-347.614
-421.134
-386.14
-366.986
-199.579
-532.975
-360.091
-1105.21
-419.256
-420.009
-394.985
-222.896
-361.56
-347.613
-300
-217.016
-321.023
-138.559
-199.331
-146.416
-359.667
-128.744
-355.362
-137.516
-391.269
-480.409
-119.467
-991.744
-464.533
-782.213
-912.259
-245.848
-977.416
-905.652
-347.757
-109.683
-349.269
-550.018
-543.029
-920.934
-121.129
-885.267
-895.113
-126.701
-1022.22
-835.812
-855.724
-1027.09
-407.445
-821.507
-818.386
-1027.44
-854.459
-465.006
-377.104
-78.3096
-680.955
-864.593
-838.37
-1042.01
-215.098
-650.779
-685.198
-256.53
-255.558
-214.677
-876.175
-999.854
-183.261
-670.556
-735.334
-736.229
-727.447
-849.516
-524.173
-447.702
-794.036
-788.696
-756.699
-495.967
-532.869
-718.506
-1032.36
-274.291
-735.701
-759.425
-887.747
-860.952
-775.444
-836.604
-799.826
-268.073
-831.943
-976.577
-876.183
-1028.08
-761.143
-867.626
-797.255
-893.203
-1030.72
-934.975
-915.179
-454.263
-934.317
-526.097
-811.559
-812.175
-806.69
-806.598
-863.73
-881.158
-757.977
-888.914
-235.906
-880.614
-880.04
-663.972
-885.731
-388.029
-388.039
-504.913
-888.171
-889.987
-836.266
-400.7
-857.138
-876.048
-876.819
-647.36
-728.061
-582.241
-750.116
-786.146
-764.208
-888.56
-242.595
-243.995
-186.214
-817.617
-311.505
-760.488
-729.888
-819.838
-935.922
-91.9742
-942.326
-276.086
-764.782
-894.723
-894.94
-761.429
-757.794
-254.246
-236.599
-223.385
-864.564
-1008.31
-993.01
-813.164
-894.295
-857.738
-166.144
-256.922
-419.744
-375.058
-837.93
-486.174
-820.919
-906.317
-878.422
-746.12
-797.833
-811.925
-704.999
-1050.06
-1053.22
-383.794
-889.589
-881.931
-834.399
-745.205
-743.063
-750.904
-825.414
-1000.38
-1007.41
-1005.11
-811.876
-576.527
-742.961
-202.069
-834.571
-360.316
-1047.99
-773.18
-812.241
-813.321
-762.529
-845.481
-450.2
-833.158
-242.796
-536.679
-946.973
-706.36
-796.034
-884.367
-359.026
-837.3
-757.822
-466.087
-814.486
-831.755
-810.603
-442.553
-918.958
-240.859
-749.133
-712.014
-813.86
-804.275
-831.273
-597.875
-777.618
-483.09
-959.076
-415.969
-421.906
-428.477
-78.1562
-452.203
-830.655
-834.353
-894.104
-245.208
-223.796
-966.217
-963.307
-724.886
-765.801
-623.606
-855.914
-767.866
-878.383
-230.374
-242.82
-868.295
-715.992
-719.379
-701.045
-825.039
-431.498
-527.601
-592.686
-880.923
-390.341
-823.838
-231.49
-588.376
-845.417
-790.204
-247.117
-708.092
-1005.27
-514.106
-492.757
-855.044
-874.378
-730.102
-1017.5
-405.876
-797.522
-767.893
-763.839
-813.016
-677.216
-859.346
-514.358
-461.674
-818.762
-224.509
-449.856
-421.721
-378.21
-750.432
-770.489
-886.873
-849.727
-524.402
-860.973
-470.417
-785.18
-898.703
-788.902
-807.671
-789.123
-267.327
-465.564
-822.583
-834.852
-690.092
-770.928
-626.267
-753.31
-683.246
-864.141
-865.619
-561.993
-412.959
-425.592
-795.975
-756.619
-733.657
-871.868
-757.515
-831.142
-774.684
-824.699
-135.105
-741.861
-1013.41
-238.568
-441.751
-483.545
-862.455
-436.22
-401.174
-718.514
-247.091
-675.681
-871.449
-781.603
-350.776
-267.126
-822.884
-524.195
-592.255
-832.844
-748.371
-861.745
-253.631
-240.231
-804.592
-827.542
-872.533
-786.91
-772.574
-203.077
-480.921
-810.268
-806.696
-658.484
-779.265
-809.414
-354.226
-832.033
-918.712
-596.942
-617.343
-400.054
-884.171
-335.194
-780.831
-593.704
-610.717
-870.166
-703.021
-1007.85
-437.92
-890.587
-857.842
-792.792
-713.666
-822.637
-762.544
-911.023
-838.259
-836.278
-839.145
-328.832
-901.756
-126.376
-596.594
-702.477
-229.382
-248.247
-1028.15
-788.565
-597.521
-568.189
-836.606
-811.488
-806.243
-194.039
-866.026
-783.808
-771.479
-417.203
-498.547
-445.35
-891.095
-841.846
-246.544
-833.955
-237.156
-838.528
-679.621
-823.902
-393.107
-793.913
-894.251
-425.287
-680.327
-609.571
-890.232
-919.028
-263.285
-553.675
-234.525
-839.02
-822.241
-1047.39
-141.32
-813.392
-852.8
-909.406
-256.001
-207.963
-486.069
-473.668
-661.782
-642.193
-844.428
-886.487
-227.775
-494.489
-1014.48
-439.142
-1004.66
-307.328
-774.638
-763.307
-328.65
-217.501
-860.587
-823.168
-779.928
-743.101
-756.072
-827.354
-867.385
-935.876
-440.699
-692.834
-824.323
-572.683
-655.482
-692.742
-643.162
-657.137
-467.422
-890.976
-904.299
-630.179
-788.548
-904.201
-421.988
-301.76
-809.298
-827.02
-793.409
-774.458
-146.95
-758.371
-728.233
-732.852
-711.5
-809.093
-806.386
-737.086
-834.652
-842.148
-861.156
-863.195
-224.842
-518.184
-236.588
-947.837
-762.501
-891.749
-305.754
-758.648
-375.314
-736.285
-272.612
-258.776
-403.805
-337.956
-822.029
-826.604
-798.523
-836.644
-135.562
-722.575
-731.187
-787.698
-817.793
-768.641
-578.773
-914.337
-862.698
-854.034
-774.802
-784.365
-530.42
-509.281
-373.513
-741.762
-705.692
-404.519
-705.949
-180.121
-183.805
-261.481
-408.024
-326.432
-252.617
-675.58
-262.342
-338.186
-638.1
-757.151
-361.692
-836.095
-833.005
-842.736
-392.71
-761.058
-755.516
-770.779
-797.993
-784.191
-740.866
-701.381
-429.928
-400.719
-505.305
-337.914
-316.044
-343.749
-468.706
-786.763
-801.47
-857.223
-831.894
-821.607
-255.718
-638.801
-625.157
-772.647
-773.298
-502.563
-647.701
-812.089
-562.239
-798.886
-251.065
-238.709
-876.684
-835.448
-830.513
-801.542
-811.512
-179.058
-163.832
-398.646
-435.186
-430.219
-583.609
-855.231
-870.256
-895.306
-433.167
-848.061
-711.874
-582.912
-587.601
-850.724
-814.971
-590.915
-840.603
-728.945
-754.559
-385.693
-129.256
-807.538
-809.121
-788.995
-546.349
-439.712
-822.642
-156.502
-831.078
-265.22
-754.691
-804.481
-1009.55
-399.523
-858.552
-905.382
-800.759
-784.241
-942.027
-829.497
-778.676
-428.331
-832.147
-551.593
-885.548
-836.566
-373.637
-218.713
-628.194
-618.002
-397.942
-826.945
-919.59
-795.009
-753.606
-522.248
-542.206
-459.86
-814.205
-128.08
-711.496
-930.558
-797.048
-821.43
-785.754
-233.442
-1024.32
-925.571
-783.085
-487.572
-180.206
-907.586
-817.226
-239.745
-218.78
-808.604
-807.247
-893.132
-475.524
-150.933
-119.73
-755.285
-140.646
-914.734
-776.58
-256.733
-163.317
-130.948
-473.301
-468.348
-732.543
-235.733
-811.49
-787.836
-664.63
-843.606
-853.93
-896.172
-300.775
-861.091
-870.979
-780.496
-111.712
-454.726
-741.806
-330.849
-185.327
-392.397
-802.752
-440.896
-874.51
-242.526
-762.931
-237.416
-822.744
-809.705
-730.432
-792.971
-867.301
-934.883
-601.029
-425.284
-674.019
-663.828
-472.971
-911.427
-906.079
-549.814
-809.414
-757.285
-524.661
-797.663
-822.395
-729.627
-517.63
-820.141
-786.84
-434.193
-948.762
-71.0145
-823.002
-713.373
-395.604
-940.448
-666.833
-708.91
-696.334
-708.778
-829.181
-273.728
-882.954
-812.159
-803.514
-290.437
-872.786
-822.306
-805.008
-867.25
-495.263
-337.369
-603.407
-1014.64
-418.686
-675.268
-509.489
-744.589
-267.939
-255.225
-960.9
-248.443
-944.567
-209.844
-959.402
-947.803
-401.319
-783.051
-443.835
-366.143
-380.736
-852.504
-833.335
-165.607
-188.021
-714.409
-375.373
-831.937
-837.528
-805.126
-764.264
-729.773
-732.646
-951.618
-426.305
-831.081
-887.342
-810.312
-840.731
-820.514
-693.791
-621.19
-134.508
-767.818
-842.096
-833.089
-229.475
-370.762
-61.9341
-790.116
-424.997
-862.025
-426.728
-257.081
-981.996
-689.921
-709.648
-740.191
-784.755
-708.807
-389.967
-855.142
-270.423
-154.174
-797.281
-1052.97
-1061.28
-793.329
-437.013
-959.475
-551.587
-809.015
-758.797
-762.127
-264.296
-79.8954
-937.444
-965.046
-511.875
-783.062
-391.845
-815.329
-239.584
-780.154
-752.43
-761.83
-524.658
-733.704
-623.833
-871.511
-780.594
-790.695
-246.392
-232.172
-360.831
-959.141
-817.672
-214.353
-231.005
-1035.33
-1053.25
-369.549
-1023.67
-769.09
-708.651
-808.214
-779.637
-808.451
-499.575
-755.733
-740.172
-369.201
-231.204
-378.551
-301.117
-216.891
-377.158
-269.775
-802.13
-637.617
-764.209
-400.849
-520.021
-875.355
-547.288
-782.587
-189.887
-227.317
-864.293
-185.12
-793.806
-785.914
-981.36
-771.975
-806.766
-835.356
-653.183
-253.148
-337.499
-324.947
-403.139
-441.667
-205.303
-854.952
-408.965
-542.415
-433.308
-419.221
-711.292
-693.514
-831.818
-467.75
-469.615
-293.596
-307.397
-481.052
-646.97
-674.254
-778.02
-373.972
-475.892
-95.5698
-794.832
-842.097
-753.721
-828.521
-769.025
-506.592
-909.239
-876.66
-258.704
-814.717
-143.193
-399.249
-1024.13
-780.769
-505.426
-820.674
-343.839
-430.227
-604.305
-797.468
-392.723
-427.232
-928.118
-192.936
-822.524
-123.107
-490.833
-422.738
-429.254
-935.118
-926.086
-523.211
-811.589
-835.556
-363.896
-446.882
-266.139
-265.769
-846.575
-846.998
-838.683
-836.592
-832.543
-227.151
-794.054
-751.407
-775.893
-260.044
-757.495
-456.449
-777.849
-807.352
-857.229
-945.346
-377.097
-244.652
-320.641
-222.354
-663.511
-773.936
-775.726
-857.015
-908.977
-915.671
-755.608
-736.707
-696.316
-552.165
-657.016
-390.54
-233.358
-447.759
-811.145
-658.461
-711.988
-530.07
-307.297
-681.128
-816.627
-791.855
-738.47
-812.09
-804.226
-450.029
-818.118
-797.106
-815.953
-156.301
-1065.5
-395.09
-321.715
-786.357
-661.254
-438.734
-939.09
-768.865
-934.378
-745.757
-723.849
-814.049
-868.328
-819.144
-484.044
-852.888
-835.901
-834.201
-832.683
-780.315
-815.645
-250.023
-248.271
-799.596
-769.898
-784.548
-128.519
-804.419
-632.268
-590.104
-126.816
-496.99
-775.025
-399.746
-444.122
-224.752
-409.007
-400.27
-800.839
-859.113
-124.368
-740.457
-435.574
-540.088
-749.225
-787.218
-770.286
-763.02
-789.866
-809.199
-796.279
-943.104
-943.63
-891.449
-828.214
-739.205
-704.004
-817.655
-766.215
-846.758
-643.014
-763.574
-959.371
-869.027
-581.778
-796.095
-708.599
-722.201
-835.581
-710.304
-809.299
-902.866
-893.532
-838.633
-209.065
-817.797
-819.457
-853.121
-832.678
-266.296
-841.867
-925.335
-922.753
-402.042
-670.913
-776.456
-804.491
-158.802
-837.667
-658.164
-380.122
-192.019
-1022.52
-819.472
-804.007
-891.829
-258.061
-236.871
-378.222
-767.892
-796.565
-700.143
-431.897
-814.487
-805.523
-402.819
-789.804
-444.516
-773.151
-771.467
-300.547
-784.903
-845.486
-463.372
-792.027
-856.817
-655.995
-856.427
-437.805
-240.58
-888.519
-863.718
-802.521
-820.835
-846.564