/*--------------------------------*- C++ -*----------------------------------*\
| =========                 |                                                 |
| \\      /  F ield         | OpenFOAM: The Open Source CFD Toolbox           |
|  \\    /   O peration     | Version:  2212                                  |
|   \\  /    A nd           | Website:  www.openfoam.com                      |
|    \\/     M anipulation  |                                                 |
\*---------------------------------------------------------------------------*/
FoamFile
{
    version     2.0;
    format      ascii;
    arch        "LSB;label=32;scalar=64";
    class       surfaceScalarField;
    location    "10";
    object      phi;
}
// * * * * * * * * * * * * * * * * * * * * * * * * * * * * * * * * * * * * * //

dimensions      [0 3 -1 0 0 0 0];

oriented        oriented;

internalField   nonuniform List<scalar> 
187826
(
-0.00395979
0.00293867
0.00132441
-0.00033606
0.00128447
-0.00352482
0.00172283
0.000548849
-0.00840881
0.00346659
0.00857199
-0.00366177
-0.00414055
0.00504255
0.000353877
-0.000733085
0.00168498
0.000364169
-0.00206871
0.00378866
-0.00199644
0.000286065
-0.00358767
0.00173078
0.00269709
-0.00106547
-0.00190091
0.00168934
9.16831e-05
0.000104617
0.00066078
-0.00428039
-0.000481917
-0.00397647
-0.00228174
0.00257928
0.0416064
-0.0284532
0.011263
-0.0213995
0.00111618
0.00100649
-0.00233955
0.000192883
0.0265217
0.00101428
-0.00320382
0.00245209
0.000941514
-0.000156455
-0.00222718
-0.000316983
-0.000636176
0.00495723
-0.000219456
-0.0059224
0.00123225
0.0023609
-0.00158566
0.000329932
-0.00490348
0.000326074
0.00544328
-0.000880334
-0.00822756
0.00322796
0.00162563
0.0027781
-0.00277312
-0.00891049
0.00723288
0.013289
0.00182884
-0.00354174
-0.00032824
0.00208533
0.008073
-0.00416548
-0.00173437
-0.00239115
0.00553328
0.00295521
-0.000556768
0.000114374
0.00292041
-0.00108315
-0.00216718
-0.000376115
0.00290802
-0.000311769
0.00100978
-0.00708826
0.00616966
-8.47468e-05
0.00484043
-0.00315229
-0.000749102
0.00307563
-0.00452295
0.00135824
5.37089e-05
0.00693929
-0.00410913
0.000261951
-0.00313158
-0.00280675
0.0032211
-0.000569835
0.000113446
-0.00225285
0.000777242
-0.000646381
0.00993424
-0.000638781
0.00250841
-0.00638778
0.00375334
0.000111976
0.000392219
0.00365338
-0.00367986
-0.000270104
-0.00608479
0.00660281
0.0022451
-0.00284265
0.00469462
-0.00983333
0.00529059
0.00012376
-0.00354101
0.00281465
0.00138139
-0.000645566
0.000899414
-0.00435968
0.00383064
-0.000362947
-0.00230783
-0.00277455
0.0057063
-0.00060467
0.000993396
-0.00293781
0.00112357
0.000854457
-0.00171542
0.00215111
0.00057077
-0.00260321
-0.00107539
0.000122617
0.00463842
-0.0021397
-0.00582994
0.00301595
-0.0066659
0.00199793
0.00526266
-0.000382276
0.00240332
0.000657219
-0.00427642
0.00120181
0.00490272
-0.00185597
-0.00240786
-0.000658933
0.00306976
0.00201652
-0.000205192
0.00269301
0.000278621
-0.00374422
0.000789349
0.00184271
0.00324973
-0.00444496
-0.00065332
-0.00480291
0.00507435
0.000278262
-0.000616415
-0.00314744
0.0033762
0.00042345
-0.000582605
-0.0108797
0.00192767
0.0077758
0.00135091
-0.00582363
0.00351356
0.00246299
-0.000165817
-0.00398782
-0.00127801
-0.000617543
-0.000122778
-0.00369919
0.00454271
-0.000705812
0.00681717
-0.00562574
-0.00348037
0.00230408
0.00156852
0.00389645
-0.00482784
-0.000638981
0.00212112
-0.00348462
0.00213633
-0.000780278
-0.000286752
0.00245707
0.000806573
-0.000837075
0.00206317
-0.00172325
0.000478975
-0.00367458
-0.00125934
0.00529357
-0.000349341
0.000923802
-0.00435774
-0.00024129
-0.00600758
-0.00147317
-0.000879459
0.00107371
-0.00526696
0.0035968
0.0004797
0.00507755
-0.0047868
-0.000317216
-0.00487286
-0.00211388
0.000919166
-0.00398918
8.92444e-05
0.000205276
-0.0019386
0.00250557
-0.00377641
0.00362287
0.00195953
0.000290453
-0.00214166
-5.10874e-05
-0.00473941
-0.000815402
-0.000957377
0.0067127
-0.00415903
0.000876025
-0.00204359
-0.00185044
-0.00201299
0.00341651
-0.000452257
0.00179784
0.00331522
-0.000547059
-0.00114233
-0.00460519
0.0046841
0.000811454
-0.00130039
-0.000337464
0.00404995
-0.00226994
0.00477246
-0.00303703
-0.00195654
-0.00568099
0.00353778
0.00209762
-2.41754e-05
-0.000954771
-0.00294038
0.000670514
-0.00396103
0.000417913
-0.00295791
0.00633133
0.00155189
-0.00210418
0.0044251
-0.000763995
-0.00206979
-0.00526021
0.000237881
0.00388293
-0.00636703
0.000292171
-0.00284318
-0.00352177
0.00514112
0.00100005
0.000975924
-0.00370235
-0.000339482
-0.00492696
0.00749491
-0.00168849
0.00478526
0.000878215
-0.00444636
-0.00147288
0.00336102
-0.00183679
0.000559633
-0.00176297
0.00175252
0.00132231
-0.00112462
0.00949294
-0.00852572
0.00230274
-0.00183955
-0.00339725
0.00300357
-0.00815905
-0.00013769
0.00507103
0.00464428
0.00013533
0.00300709
0.00306191
-0.00168851
-0.00252297
0.000521574
0.0014175
0.000548743
-0.000652382
-0.00168183
-0.000175626
0.00335101
-0.00521012
-0.000242378
-0.00388066
0.00172561
0.00627223
-0.00462816
-0.00126408
0.00408437
0.00182068
-0.00445988
-0.0014881
-0.00397572
0.0055818
-0.00197424
0.000450856
-0.00255277
-0.00273613
0.000513708
-0.00649767
0.00488905
0.00692641
0.000838658
-0.00303719
0.00692384
-0.00138355
0.0018661
0.00230879
-0.00375646
-0.000445497
-0.00422115
-0.000990153
-0.00118265
0.00294891
0.00563744
-0.007338
-0.00109111
0.00389024
-0.00443224
0.000102902
0.000440705
0.00570456
-0.00312599
0.000444176
0.00409489
-0.00078964
0.00342784
-0.00120129
0.0010744
-0.00251099
0.00123771
8.47104e-05
0.00402944
-0.00262203
-0.00079418
-0.000618043
0.00134293
0.00398044
-0.00303485
-0.00239995
0.00164106
-0.00201927
0.00139054
-0.000989581
0.00503552
-0.00328038
7.66461e-05
-0.00325223
-0.00078677
0.000555493
-0.00403556
0.00680258
-0.00196338
-0.00070568
0.00137572
-0.0026526
0.00139973
-9.85812e-05
-0.009712
0.00575151
0.00431801
-0.000405226
-0.00174462
0.00248853
0.00071356
-0.00228704
0.00107174
0.000382387
0.00331725
-0.00432733
0.000933149
8.34556e-05
-0.00621348
0.00348316
0.00148649
0.0080593
-0.00334344
-0.00470755
8.23125e-05
0.0042812
0.00319539
-0.00542926
-0.00211537
-0.00135507
0.00744199
-0.00179687
0.00213617
-0.000930334
-0.00185293
0.000626022
0.00300125
-0.000565297
-0.000331943
0.00190083
-0.00331964
0.000563355
0.000847556
-0.000248825
0.00388412
-3.49668e-05
-0.00200528
0.000408318
0.0012834
-0.00275541
-0.000598343
-0.000518289
0.00377268
-0.00308349
-0.000174234
0.00479361
-0.000234382
-0.0039608
-0.00126616
-0.0031823
-0.00170282
0.00651795
-0.00158968
-0.000742611
0.000752881
0.0102612
-0.0057205
-0.00303715
0.00481927
-0.000215096
-0.00476908
-0.000607001
-0.00181069
0.00610015
-0.00029641
-0.00251564
6.97038e-06
-0.000574672
-0.00587852
0.00235078
-0.000458266
0.00936567
-0.00723889
-0.00186073
-0.000310768
-0.000281499
0.00540049
-0.00256803
-0.00209785
-0.000743178
0.00257268
-0.00373836
-0.00140842
0.00380225
0.000268486
-0.00119143
-0.00221747
-0.00198182
0.00482687
-0.00060024
0.00453724
0.00053152
-0.00491794
-9.92475e-05
-0.00137822
0.0075336
-0.00156136
-0.000347993
-0.0031688
-0.00046531
-2.69209e-05
-0.00578144
0.00196041
-0.00177964
-0.00163118
-0.00834135
0.00363975
0.00346406
0.00095711
0.00478962
-0.003579
-0.00170907
0.000487519
0.00240428
0.0022041
-0.00490579
0.000300711
-0.00232271
0.00471746
1.51051e-05
-0.00240285
-0.00480641
-0.00132151
0.0048888
-0.00155156
-0.00513334
0.00588777
0.000587782
-0.00122861
-0.002401
-0.00255816
-5.0529e-05
0.00355395
-0.00410124
1.21073e-05
-0.00514411
0.00572772
-0.000575019
8.02285e-06
0.00377001
0.000769505
0.000781584
0.0025045
0.000727091
-0.00607387
0.00081594
-0.00393562
0.00413814
-0.000510513
0.00669679
-0.0014928
0.00524584
-0.00117707
-0.000751129
0.00710076
-0.00232412
-0.00118162
0.00429111
0.0036883
-0.00085419
-0.00427985
0.00147772
0.00286299
-4.49375e-05
0.00614039
-0.00721601
-0.000414198
0.00149009
0.00274827
-0.00194327
4.27424e-05
-0.00104263
-2.20375e-05
0.00249374
-0.000188598
-0.000650565
-0.000783964
0.00134306
6.22389e-05
0.000621318
-0.00591345
0.000165035
0.00246006
-0.000765692
0.00273277
0.000538584
-0.00413256
0.000873291
0.00447284
-0.00105199
-0.0044153
0.00117622
0.00804433
-0.00107172
-0.00153598
0.00146979
0.00225394
-0.00245591
-0.00128517
-0.00301457
-0.000896535
-0.00529992
0.00576305
-0.00115481
0.000749428
0.00280087
0.00134226
-0.00149584
0.00810202
-0.00291807
-0.00587721
0.000685007
0.0041076
8.66438e-05
-0.00473296
0.000482199
0.00813867
-0.00062012
-0.00341461
0.0013547
3.64999e-05
-0.00292122
0.00152285
0.00438545
0.00194715
-0.00181435
0.00317087
-0.000853722
-0.000534011
-0.00193853
-0.00283882
0.0054683
-0.000682546
0.0020442
0.0029507
-0.000229649
-0.00703757
-0.000570088
0.00779132
-6.95463e-06
0.00517661
-0.00332108
-0.00194456
8.4885e-05
0.00187579
-0.000916588
-0.00240985
-0.000584461
0.00309527
-9.37796e-05
0.00708211
-0.000801344
-0.000678816
0.00424825
0.0035399
-0.000949276
-0.000497858
0.00317523
0.00343858
-6.72496e-05
-0.00123652
0.000980923
0.000398479
-0.00167993
0.000962134
0.000663195
0.00341057
-0.00240834
-0.000413888
-0.000556034
0.00571571
-0.0113488
-0.00418356
0.00305564
0.000508448
-0.000200579
-7.66634e-05
-0.00323684
0.0037373
-0.000799308
-0.00540704
0.00477278
0.000555579
0.0040964
-0.00345419
-0.000780424
-0.00632962
0.0124667
-0.00587991
0.0040677
-0.00279213
-2.90359e-06
-0.0010557
0.00254372
-0.00131866
-0.000499289
-0.00189681
-0.000210654
0.00465258
-0.00242735
2.44273e-05
-0.00451128
-0.00113576
-0.00204987
-0.00287416
0.000569801
0.00447415
-0.000831636
-0.000453353
0.00322054
0.000384133
-0.00436527
0.000770581
0.000875202
-0.00545626
0.0014276
0.0036529
8.16474e-05
0.00177843
-0.00133347
-0.000546258
-0.00207021
7.12038e-05
0.000150119
0.00117562
-0.00575138
0.000528607
0.00404284
-0.000642289
-0.00399964
0.00259091
0.00197172
-0.000568385
0.00217219
-0.00368411
-0.000791627
0.00290104
1.67446e-05
0.000443808
0.0025037
-0.0038792
-0.00084958
0.00397884
-0.00187071
-0.00130698
-0.000797543
0.00248715
0.00156384
-5.76004e-05
-0.00012021
-5.32747e-05
0.00145361
0.000543804
-0.000477406
0.00189992
-0.00211321
0.00266076
0.00239149
0.000120856
0.00185985
-0.000468287
0.000515858
0.00159805
-0.00371647
-0.00030715
0.00391467
-0.00226615
0.000366728
0.00679012
-0.00433402
-0.0026291
0.000308933
-0.00140972
0.0020727
0.000479343
0.00608094
-0.00337597
3.38565e-05
0.00577244
-0.00109782
-0.00277487
-0.00193872
-0.00611151
0.00451057
0.00187914
-0.000200604
-0.00396218
-0.000247817
-0.000606861
0.00772969
-0.00166981
0.000504182
-0.00724896
0.0080685
-0.00076792
4.63424e-05
0.000856314
-0.00383828
0.000774795
-0.00057521
0.000954157
-0.00787404
-0.00233027
0.000414641
-0.00415386
-0.000730823
0.00475845
-4.85831e-06
0.001496
-0.00439569
0.00251882
0.000431965
0.00437627
0.000393879
0.00214107
0.00171504
0.0015308
-0.00364205
0.00183747
-0.000100872
0.00259779
-0.00163445
-0.00179427
0.000831982
0.00116749
0.000968407
-0.00266061
0.000587752
-0.00550309
0.000742505
-0.00083794
-0.000576875
0.00591546
-0.000222693
-0.00155002
-0.000802922
0.000448349
0.00104325
0.00246597
-0.00363759
5.55108e-05
0.0035877
0.0033127
-0.00122094
0.00238838
-0.002421
-6.79717e-05
0.000161169
0.00550965
0.00160903
-0.00262449
0.00438259
0.00475339
-0.009177
-2.62205e-05
-0.000606383
0.00310136
-0.00078076
0.00242451
0.0052399
-0.0010656
0.0020837
-0.00407919
0.00113637
0.000861597
-0.000792374
-0.00651472
-2.05808e-05
0.000439871
0.00143858
-0.00169939
-0.000239192
-0.00230771
0.00674672
-0.000173799
-0.00136017
0.00509813
-0.000413439
-0.00327378
0.0051676
-0.000437437
0.00525047
-0.00148289
-0.00365768
-0.000186968
-0.00176677
-0.00272114
0.00019576
-0.00190504
0.0151783
0.0030483
0.000171622
-0.00161556
-4.78154e-05
-0.00404484
0.00140427
0.00330105
-0.00106504
-5.8002e-05
0.00264464
-0.00234362
-0.000215376
0.00479207
-0.00103335
-0.000537846
0.00755913
-0.00390609
-0.00279713
-0.000849164
0.00451679
0.00223391
0.000819997
-0.0018795
0.00354012
-0.00162032
-3.49659e-05
-0.00545747
-0.000281803
0.000454519
0.000874789
0.00311919
-0.00212028
-0.00124458
0.000231891
0.0033144
-0.00422417
0.000335977
0.00091472
0.00214644
0.000356112
0.0045739
0.00264043
0.000840442
0.000328143
0.00532061
-0.000544053
0.00349902
-0.00295694
-0.000148657
-0.000974234
-0.00424956
0.00130701
0.00491416
-0.00139244
-1.89652e-05
0.00521183
-0.000463085
-0.00478654
-5.65193e-05
-0.00310694
0.00425856
0.000329604
-0.00103825
-0.00030273
0.00206255
-0.00399606
0.000821008
0.00107214
0.00427468
-0.00107276
-0.00014951
0.00427497
0.000573009
0.00168164
-0.00140117
-0.000210408
-0.00183973
0.000600651
0.00171912
-0.000523551
6.66094e-05
0.00127792
0.00108296
0.00485639
-0.00452155
-0.00143139
-0.000232622
0.00113929
0.000441814
-0.00187637
-0.00092171
0.00295751
-2.86741e-05
0.00305944
-0.00367008
0.000572072
-0.0218142
0.0100866
-0.0012776
-0.00179035
0.00403781
-0.00203008
-0.000242924
-0.00297354
-0.00364493
0.00140471
-0.00768614
-0.00027692
-0.00151037
0.00104654
0.000702625
-0.000323885
-5.28294e-06
0.00155137
0.000593577
0.000191413
-0.0054909
0.00611632
-0.000871205
-0.000224124
-0.00104726
0.00362197
0.000840295
-0.00481167
0.000869858
-0.000481066
0.00289967
0.00164343
-0.00545518
0.000879381
-0.00695114
0.00581276
0.00111288
-0.000377567
0.00153063
-0.00136286
-6.77279e-05
0.00265541
-0.000473701
-0.000589945
0.00374779
0.00100761
0.000479853
-0.00371406
0.00286635
-0.000196948
-0.00520609
6.02371e-05
0.00143794
0.0019941
-0.00464953
-0.00145839
-0.00235179
0.00453705
-0.00179975
-0.000381453
-0.00272933
0.00018819
-0.00205889
0.00279909
-0.000378887
0.00442116
-0.00328164
0.000734717
-0.000419092
0.00422983
0.000403521
0.00225888
-0.00366547
-0.000405143
0.00223159
-0.00503528
0.00225798
0.00056037
0.00116773
-0.00412434
0.000598421
-0.0016553
0.000394784
-0.000301282
-0.00509639
0.0039204
0.000822785
0.000219509
0.00324771
3.82735e-05
0.00135931
0.0034037
-0.00103339
-0.00222455
-0.000134042
-0.00310589
9.99063e-06
-0.000541532
5.44545e-05
0.00203103
0.000308893
-0.00541481
0.00105447
-0.00188631
0.00216828
-0.00429072
0.00145912
0.000691456
0.00572653
0.00233514
-0.00781786
-0.000411604
-0.000404727
-0.00263867
-4.33113e-05
0.00403883
-0.000613331
-0.00190063
-0.00370594
-0.00164367
0.0043412
0.000997216
-0.000704401
0.000322325
0.00442281
0.00098561
-0.00223688
0.00131835
0.00102555
-7.30513e-05
0.000200234
0.00748517
-0.00116817
0.00590692
-0.00450091
-0.0002828
0.00484578
-0.00491753
-0.000726964
-0.00473732
0.00194347
0.00091847
5.91724e-05
0.00503961
-0.000359595
-0.00553655
0.00310781
0.00104739
0.00138063
0.00414996
-0.00156363
0.00207455
-0.00362234
-0.00105561
-0.00244737
-0.000505313
-0.00247363
0.00581283
-0.00213742
-0.00145968
-0.0030228
0.00200158
0.000127022
0.000884938
-0.00078467
0.00152001
0.00244412
0.000351532
-0.000412662
0.000264132
-0.00373818
0.00449948
-0.00102305
-0.000827001
-0.00255013
-0.000208313
0.000804938
0.00159015
-0.000527706
0.00194451
0.00137872
-0.000333331
0.00093784
-0.00600867
0.00482938
0.00112333
1.57903e-05
0.00280994
-5.23483e-05
0.00373688
-0.00197346
-0.001904
0.000109482
-0.00532119
0.000170004
0.00330731
0.00191982
0.0035357
-0.00353763
-0.000888397
0.000889294
-0.00260731
-0.000273266
0.00231821
0.000642834
-0.00323267
0.00361455
-0.000604146
-0.000327874
-0.00258905
0.00406521
-0.00140899
-8.49492e-05
0.00183409
-0.00452182
9.66536e-05
-0.00176993
0.000594187
-0.00455142
-0.00123734
0.000598578
7.98925e-05
-0.00423606
-0.00038163
-0.00126061
-0.00566169
0.00296183
0.00253716
-0.00486022
-0.000327827
-4.86091e-05
0.00348816
-0.00406436
0.000656383
0.009576
-0.00495433
-0.00469462
0.000103392
0.00106929
0.00251992
0.000275417
-0.00425437
-0.000704329
0.000773318
-0.0027795
-0.0010956
-0.00044158
0.00330694
-0.00517131
0.000477353
0.00116582
-0.00657092
0.00521053
-0.00080488
0.00241465
-0.00285049
-0.000392707
0.00336344
-0.000119079
-0.00163148
-0.00095619
0.00675854
-0.0012815
-0.00297285
-0.000736547
0.00463192
-0.00089087
0.00149137
-0.00327104
-0.00121716
0.00335659
-0.00156036
0.0039913
0.000204165
-0.00262021
0.00106171
0.000970496
0.00116777
-0.00373641
0.000249795
-0.000473813
0.00197753
0.0002443
0.00391538
-0.000322682
-0.00478375
0.00122908
0.00763245
-0.00266501
-0.00105438
0.000664839
0.00736545
-0.00141515
-0.00530246
-0.000440974
-0.00273807
0.00214145
-0.00545612
0.000950397
0.00514014
0.00356449
0.00107753
0.00532762
-0.00105351
-0.000899152
0.000683707
-0.00194284
0.000317015
-0.00261889
-0.000873581
0.000960301
-0.000337636
-0.000720333
-0.00120012
-0.00207178
0.00227347
-0.00065253
-0.00381506
-0.000259268
0.00476985
-0.000688218
-0.00137586
-0.00179102
-0.000842143
0.00017228
0.00610492
0.000744443
0.00125809
0.000458108
8.14129e-05
-0.00212911
-0.000295811
0.00195607
0.000469589
-0.00122873
0.00122304
-0.00337195
-0.000166672
-0.00157012
0.00155952
-0.00122548
0.00532028
-0.00322759
-0.000346483
-0.00173012
-0.00133873
0.00506685
0.00115112
-0.00636376
0.00291805
-0.00119708
0.00198237
-0.00400468
0.00380475
-0.00142198
-0.000676942
3.12822e-05
0.00158416
-0.000944929
-0.0031884
0.000925021
-0.00168173
-0.00443538
-7.3803e-05
-0.000390724
0.0084533
-0.000765055
-0.00552538
-0.00214194
0.00216832
-0.00253365
0.000668885
-0.00144752
0.00366294
-2.37494e-05
0.00014315
0.00544077
0.00284943
0.00323771
0.000888872
0.00522317
-0.00342664
-0.000446953
0.00340976
-0.00357905
-0.000668669
-0.0049596
0.0010386
0.0030931
0.000850847
-0.00326381
-0.000378065
-0.00164378
0.00269902
-0.000409233
-0.00065428
-0.00321418
0.00111047
0.0011069
0.00237984
-0.00289462
-0.000587958
0.00382051
-0.000446621
0.000669611
-0.000333549
-0.00227214
-0.00325003
-0.00140169
0.00301411
-0.00146227
0.00175244
-0.00454481
0.000745611
0.00394672
-0.000634411
0.000692265
-0.00696805
0.00133352
-0.00601426
0.00185106
0.00223939
-1.23411e-05
0.002755
-0.00252391
-0.000173802
-0.00326488
-0.000306241
-0.00196545
0.00375469
-0.00252043
0.000712005
0.0015274
-0.00348563
-1.92059e-05
-0.000195818
-0.000244496
0.00828121
0.0200246
-0.0314587
0.00140576
-0.00346787
0.0019685
0.00210466
-0.00383828
0.00118424
0.000532417
0.00411707
-0.00184206
-0.000173111
0.00440008
-0.00217228
-0.000217645
0.00669089
-0.00221209
0.000395588
0.00180711
-0.0050371
-0.000536426
-0.00292603
-0.000385352
-0.00637984
0.00228336
-0.00132045
-0.00535241
0.00119532
0.00237533
-0.00679307
0.000188492
-0.000322029
0.000831035
-0.0038641
0.000363976
0.00167962
-0.00171661
-0.000280841
-0.00291722
0.00226123
-0.00204735
0.00132557
-0.00531073
0.000253344
0.00356642
0.00488533
-0.000636074
0.00138529
0.0018953
0.00391958
-0.00139396
0.00156809
-0.000636945
0.000483558
-0.0015297
-0.00387497
0.000108643
-0.000943582
0.00318361
-0.000779996
0.00242394
-0.00062158
-0.00119758
0.00190608
-0.00117527
0.000444745
0.000932898
-0.00181307
-0.000316002
-0.000446631
-0.00350092
-0.000191328
0.00286038
-0.00224047
0.0015779
-0.000501445
-0.00268055
-0.00113901
-0.00214387
-0.000280032
-0.00137483
-0.000171963
0.00267549
-0.00470381
0.0023081
0.00253308
0.0205493
-0.00567101
0.00154573
-7.78082e-05
-0.00314543
0.00028329
0.000265354
-0.00121962
0.00256417
0.000800868
0.00190632
0.00188497
-0.00288406
-0.00153966
-7.17157e-05
-0.00267186
0.00257642
-0.000448749
-0.00175122
0.00647616
-0.00039288
0.00629815
-0.00590872
0.00078996
-9.97556e-05
0.00711267
-0.00077638
0.00177094
-0.00459829
-0.000501259
-0.000857462
-0.000570326
-0.00293125
0.00127214
8.50099e-05
-0.00181208
0.00122286
-0.000146045
0.00212573
-0.00132089
0.00430448
-0.00231521
-0.00119317
-0.000793411
0.00202842
-0.00443152
0.00280331
-0.00038624
0.00349686
-0.00167561
-0.000869212
-0.000917489
-0.00191786
-0.00213233
-0.000978977
0.0029265
-0.00138704
-0.00197987
0.000413278
0.00254738
-0.000665444
-0.00317757
0.00256788
0.000770237
-0.000102113
-0.0142722
0.00347775
0.00113059
0.00330847
-0.00373545
-0.000817309
-0.00269896
0.000350745
0.00362558
-0.00509677
0.00130378
0.000170902
-0.00011984
0.00187642
-0.000103706
-0.00574045
0.000626389
0.00116362
-0.00339986
0.00241287
0.00221683
-0.00121939
-0.0019174
0.00309559
0.00037654
-0.000976438
-0.000233588
-0.000120444
0.00318365
-0.00421814
0.00167907
-0.000529567
0.00229888
-0.00208203
0.00267157
0.000499498
0.00622262
-0.00498803
-0.00183977
-0.00221921
0.00419804
-0.000138269
0.00250793
-0.000470454
-0.00498926
0.00202732
0.00038653
-0.00441016
0.00243541
0.00167118
0.00030464
-0.00190296
-0.000242982
0.00231172
0.00298469
0.00078668
-0.000645791
0.00465244
-0.000607951
0.00197117
-0.00161534
-0.000326036
0.00155143
-9.93899e-06
0.000462675
0.00293183
-7.83006e-05
0.00591654
-0.00232729
-0.00246171
-0.00227059
1.05147e-05
0.00385925
0.00288195
-0.00140376
0.00180755
0.00143114
0.000295173
-0.00447858
0.00404096
0.00037488
3.93314e-05
-0.00168397
-0.0025116
-0.000300087
0.000382743
0.00369031
-0.00580356
0.00152848
-0.00407553
-0.000720701
-0.00204253
-0.00147809
0.00403343
-0.00109713
-0.00145833
-0.000950656
-6.64433e-05
0.00218102
-0.000436862
-0.0030133
0.00606542
-0.000665321
-0.00210794
-0.000180424
0.00310066
-0.00400603
0.00151555
-0.000215746
-0.00334375
-0.000241899
-0.00422172
0.000920004
0.0035277
-0.00243868
-0.00109527
-7.93243e-05
0.00088401
-0.00324279
-0.000489437
-0.00155951
8.7855e-05
0.00179325
-0.0014088
-0.000421096
4.27324e-05
-0.00446878
-0.00135279
0.000122958
0.000958866
-0.00027091
0.000492381
0.0039223
-0.000600016
0.00430415
-0.0040189
-0.00271535
-0.000502115
0.00484661
-0.000381963
0.000189438
0.00275652
-0.000446224
0.00248301
-0.00269312
0.000432314
0.000581524
-0.0007051
-0.000440175
0.000844891
-9.8648e-05
-0.000757671
0.000117784
-0.000624598
-0.000462696
-0.00293181
-0.000341107
0.00559359
-0.000306484
-0.0047654
0.00373796
0.00131282
-0.000287117
-0.00461841
-0.0019208
0.00165343
0.00105457
0.00197192
-0.00115263
0.000183587
0.00429259
-0.00556507
0.00115219
0.00307336
-0.00159002
0.000913049
0.00319412
-0.00291753
-0.000753567
0.000559009
0.000664755
-5.32626e-05
-0.00224551
-0.00415622
0.00564389
0.00112717
0.00496581
0.00178553
-0.000203695
0.00365533
-0.00337214
-0.000747645
0.003241
-0.000379944
-0.00199227
-0.000100088
-0.00651416
0.00285071
0.00168959
-0.00266979
0.00106963
-4.88058e-05
0.00241909
0.00426751
-0.00103083
0.0003432
0.0037397
-0.000322832
-0.00149235
0.00420726
-0.00358333
0.000898855
-0.00670709
0.00220127
-0.00149513
-0.00360027
-0.00119409
0.0016266
-0.00290801
-0.000820005
0.00486025
0.000835873
-0.000870156
-0.00136362
-5.56453e-05
-0.00137216
0.00610976
-0.00803428
0.00124371
0.000652103
-0.00160628
0.00155114
-0.000578543
-0.00100129
-2.17679e-05
0.000471147
-0.00319567
0.00339264
-0.000737972
-0.00400272
0.00112734
-0.00152325
0.00547869
-0.00346731
-0.0011806
-0.000809702
0.00494632
0.00298133
-0.00209091
0.00423902
-0.00124446
0.00612681
-0.00663163
0.000228637
-0.00428276
0.00472808
9.80497e-06
-0.000880511
-0.00191538
0.00227759
0.000738511
0.000188778
0.00358462
0.000578139
-0.00391202
-0.000225218
-0.00220277
-0.0239455
0.0126052
0.0143262
1.95583e-05
-0.00597334
0.00393838
-0.00128108
-0.0014029
-0.000207049
0.00582921
0.000474232
-0.000998796
0.00608563
-0.0013497
-0.000842912
-0.00110188
-0.000465774
0.00204446
-0.0035043
0.00172371
-0.00221891
0.00269709
0.000171967
0.0014775
-4.59295e-05
-0.000624874
8.98251e-05
-0.000751054
0.00172473
0.00124095
-0.00383924
0.00299299
0.000594958
0.00569295
-0.0028487
-0.000612939
0.0051943
-0.00298565
-0.000173021
0.00144519
0.00182226
-0.000838219
-0.000862297
0.00355403
-0.00135087
0.0031733
-0.00122089
-0.00267407
0.00261553
0.00015151
-0.00129085
0.00160544
-0.000304529
3.60164e-06
0.00400476
7.36673e-07
0.000481527
0.00358531
-0.00362497
-0.00134633
0.00139349
0.00540688
-0.00496213
-0.00101024
0.0091905
-0.000327372
-0.00538699
0.000418605
-0.00254017
0.00327588
-1.82557e-05
0.000995674
0.00346544
0.00117837
-0.00100732
0.00116563
0.00286448
0.000274023
-0.00458429
-0.00130155
-0.000284423
-0.000659741
0.0020421
-0.0031336
0.00694504
-0.00626518
-0.00135546
0.000687884
0.00514717
-0.000209679
-0.00480428
0.00297605
0.00386997
-0.00252583
-0.00138759
0.00384264
3.21934e-05
0.00445018
-1.1995e-05
0.000777494
-0.00308277
0.00206473
-0.000488095
0.00391566
-0.00651221
0.00175373
0.00478985
-0.00435224
0.00136287
-0.00147497
0.00067209
0.00184346
-0.00321749
0.000679753
0.00265933
-0.00209283
6.11428e-05
0.00260599
-8.70581e-05
0.00152136
0.0125537
0.00645047
0.00429932
0.000938506
-0.0011434
0.0059073
-0.000889935
0.00271157
-0.000551951
-0.00200289
0.00290597
-0.000354523
-0.00253451
0.0023756
-0.000392004
0.00334921
0.00124753
-0.00483661
0.000209883
-5.35519e-05
0.00427868
-0.000890867
-0.000478687
0.000527877
-0.00152421
0.00195279
-0.000935379
0.000484036
-0.00293346
0.00406156
-0.000254346
0.00173726
0.000112868
-0.00204643
-0.00144461
-0.000859753
0.00546822
-0.000376342
0.00712277
0.000493527
0.00339014
0.000541748
0.0019009
-0.00203533
0.000122826
0.00103907
-0.00379673
0.00112505
-0.00141813
0.00198372
-0.00108707
0.00200429
0.00218846
-0.000196015
-0.000893129
0.00315151
-0.000185787
-0.00103877
0.00354578
-0.00105179
0.000624151
0.0200142
-0.0254135
0.00663339
-0.00190466
0.00654806
-0.00830749
-0.00520014
-0.0023667
-0.000307454
1.46906e-05
0.00252346
-0.00654241
0.00462882
-0.000326005
-0.00160729
-0.000829016
-0.00288456
0.00309994
0.00142581
-0.000501622
-0.00359094
1.05014e-05
-0.00237564
0.000576081
0.000270815
0.00303283
0.000545762
0.00179672
0.00229806
0.00254251
0.000411497
-0.00172196
-0.000889906
0.00157926
-0.000310202
0.00439021
-0.00345905
0.0010224
-0.00154713
-0.000438933
-0.00154322
0.00307733
-0.000214681
-0.000368103
0.00103496
0.000197521
0.000966972
-0.0015594
-0.000352142
0.00243184
-0.000382851
-0.0029626
0.000446129
0.000887345
-0.0011467
0.00621703
-0.00105522
0.00425062
-0.0016424
-0.00292568
1.8764e-05
-0.000169655
-0.00173514
0.00332178
0.000706888
-0.00230114
-0.000240696
0.000814588
-0.00492712
0.00457881
0.0022358
-0.00206914
0.000627034
0.00268451
-0.00469618
7.66821e-06
-0.00168654
-0.0010116
-0.00108943
0.00191887
-0.00416013
0.00052538
0.00530313
-0.00321181
-0.000185303
0.00130631
-5.04502e-05
-0.00280932
0.00124712
0.000911854
0.00257031
-0.00201605
7.00004e-05
-0.000663744
-0.000651972
-0.000534376
-0.00427377
-0.00111068
0.00290547
-0.00111211
-0.00106581
0.00220168
0.00052746
-0.00344553
0.00321149
-0.000296925
-0.00409258
0.00375496
0.000879605
0.003111
-0.00287045
0.000290073
-0.000118577
-0.00899028
0.00302524
0.00142704
0.000865153
8.05918e-05
0.00176354
-0.00509467
0.000953398
-0.00514665
-0.00243907
0.00118106
-0.00216174
-0.00124531
-0.00463789
0.000930438
-3.12636e-06
-0.00104718
-0.00239409
0.000535537
-0.00117097
0.000849987
0.000711751
0.000169515
0.00221309
0.000999408
0.00440837
-0.00472885
-0.000616692
0.0258334
0.00812265
0.00182912
0.00226897
-0.000481147
0.00517027
-0.00214357
-0.00393471
0.000413387
-3.97352e-05
-0.000282948
0.000546746
0.0018544
-0.000326066
-0.00236284
-0.00226436
0.000200246
-0.00133253
0.000330332
0.0163074
0.00224848
-0.0101289
0.00266745
0.000738879
-0.00101981
0.019181
-0.00142677
-0.000350194
0.00101112
0.00256676
0.000311583
-0.0132762
0.012721
0.00690214
-0.00249946
0.0044283
0.00125263
-0.00536468
-0.000498334
6.15515e-05
-0.00252731
0.000697247
-0.0057035
0.000173453
-0.00309414
-0.000439131
0.000606286
-0.000388847
0.000774772
-0.000953039
-0.0008324
0.00206637
-0.000606601
0.00117347
-0.00525573
0.00117411
-0.00227257
-8.55752e-05
0.00308715
-0.000629526
2.20465e-05
0.00183833
0.00136574
-0.000139735
-0.000261575
-0.00173808
-0.00311325
0.00417041
-9.36475e-05
0.0047203
-0.00371806
-0.000882931
-0.00196477
5.50843e-06
0.00213514
3.93272e-05
-0.000583067
-0.00120735
-0.0029239
0.00362141
0.000543249
-0.00380134
-0.00148101
-0.000410428
-0.00246097
0.00220972
0.000346888
-0.00471425
0.00142383
0.000314072
0.00393291
-0.00402787
-0.000681671
-0.0023071
-0.00345163
0.00086806
-0.00584858
0.00501614
-0.00059541
0.00145495
-0.00647958
0.0022375
-0.00162166
-0.00273014
-0.00400692
0.00166316
0.00241795
6.95091e-05
-0.00216328
-0.000403611
4.18001e-05
0.00116424
0.000845319
0.00522463
0.000468349
0.000421509
-0.00346579
0.0003767
-0.00208716
-0.000335908
-0.000132312
-0.00691697
0.00339715
-0.000673902
0.00222201
0.000620586
-0.000263376
0.00443553
-0.00280786
7.71184e-05
-0.0190804
0.0101443
0.00276825
-0.0061187
0.00429775
0.00153991
0.0032248
0.0032492
-0.000231553
-0.0102728
-0.00220826
0.00440726
-0.00196702
0.00305462
-0.00380473
0.00116661
-0.000435474
-0.000595345
0.000185675
0.00304563
-0.00124023
-0.00164045
-0.000152191
0.00226747
0.00121659
-0.000435996
-0.000250952
-0.000393266
0.0131967
-0.0143464
-0.0032481
-0.00319602
-0.00276977
0.00520045
0.000711257
0.00347935
0.000678941
1.54548e-05
-0.000875208
-0.000767938
-0.00173104
-0.000961646
0.00806046
-0.0054956
-0.00211032
0.01146
-0.00191064
-0.00170412
-0.000550744
-0.00306301
-0.000394369
0.00190033
-0.00237978
-0.000307887
0.00255691
-0.00530211
0.00301067
-0.00402793
-5.60603e-05
0.00219733
0.000904789
-0.000346909
0.00490823
-2.2306e-05
-0.00525262
0.000767685
0.0117051
-0.010328
-0.00353021
0.000795553
-0.00101081
0.000810509
-0.00047649
0.000901836
-0.000335157
0.00273391
0.00112183
0.0008706
0.000309871
-0.00013759
-0.000924511
0.000837313
-0.00399087
0.00170857
0.00151476
0.000785913
0.000674002
-0.0001517
-0.0073259
0.00438149
-0.000907876
-0.00380068
0.000930868
0.00552012
0.000506017
-0.00146248
-0.00337273
0.00342894
0.00118037
-0.00339473
-0.00199715
-8.60462e-05
-0.000102396
-0.000686302
0.00472465
-0.000739512
-0.00335862
-0.000330565
0.00504241
-0.000654753
0.00124427
0.00039051
-0.0019265
0.000283888
0.00202141
-0.000328394
-0.000724512
0.00229409
-0.000466984
-0.00282901
-3.94291e-05
-0.00254511
-0.00153645
0.0023129
-0.000872478
-4.0373e-05
0.000664901
-5.90113e-05
-0.00192801
-0.0054262
-0.00235373
-0.00387508
-0.00177619
-0.00289155
-0.00145898
0.000330891
0.00117952
-0.00333642
5.03152e-05
-0.0034458
5.28092e-05
-0.00448177
0.00341737
4.02654e-05
-0.000215542
0.00438133
-0.000609105
-0.0013956
-0.000161151
-0.00125867
-0.00107386
0.00231467
2.01105e-05
-0.00194377
-0.000665878
-0.00192794
-0.000575466