/*--------------------------------*- C++ -*----------------------------------*\
| =========                 |                                                 |
| \\      /  F ield         | OpenFOAM: The Open Source CFD Toolbox           |
|  \\    /   O peration     | Version:  2212                                  |
|   \\  /    A nd           | Website:  www.openfoam.com                      |
|    \\/     M anipulation  |                                                 |
\*---------------------------------------------------------------------------*/
FoamFile
{
    version     2.0;
    format      ascii;
    arch        "LSB;label=32;scalar=64";
    class       volVectorField;
    location    "10";
    object      U;
}
// * * * * * * * * * * * * * * * * * * * * * * * * * * * * * * * * * * * * * //

dimensions      [0 1 -1 0 0 0 0];

internalField   nonuniform List<vector> 
76615
(
(6.11996 6.53036 2.07544)
(14.6514 0.103519 6.78298)
(9.23997 -0.978707 6.74373)
(3.13458 -0.900362 -0.986668)
(13.4498 1.86486 5.36423)
(10.4703 1.30433 -3.57315)
(-0.478478 3.71642 0.454383)
(1.63526 5.25112 2.20716)
(2.64225 0.719162 -1.10025)
(2.05424 0.993615 -0.691762)
(12.3843 -0.714257 10.3386)
(7.35244 1.48399 -6.45022)
(12.0203 -5.83636 -0.0648456)
(14.0734 -2.00932 5.99845)
(13.4276 1.35107 6.55238)
(4.76275 -1.23781 -1.71957)
(7.78914 -0.477335 -5.49397)
(5.04056 -3.03736 -0.505018)
(4.8358 4.84365 -1.84359)
(6.0914 -1.06645 2.29214)
(1.28816 2.20935 -1.10539)
(2.12344 0.74439 0.730632)
(3.09039 0.333141 0.851085)
(3.17207 3.47162 0.0924968)
(13.997 -0.107345 -1.66926)
(12.7915 -0.251883 -5.00688)
(10.3555 1.28656 -4.49156)
(3.95681 -0.0415944 0.946375)
(3.03888 1.54134 0.303947)
(15.1277 -5.45259 0.269187)
(8.29766 -0.923796 -2.91745)
(2.76352 0.602563 0.0127178)
(24.1561 0.369196 3.9088)
(6.68123 1.26855 -1.29951)
(3.40874 1.32978 -0.601232)
(7.59016 1.94999 -0.367835)
(7.00474 -1.51425 -2.92037)
(19.5542 0.970889 2.03951)
(14.6086 0.437686 0.768912)
(7.22636 0.686515 -3.52003)
(8.60419 -0.49665 -3.85858)
(6.42742 -1.95304 -3.29923)
(6.3267 3.20759 -2.76638)
(3.94919 2.14044 -0.830726)
(10.5624 -4.77346 1.46038)
(18.5614 2.91128 5.79783)
(20.1653 1.90203 4.70902)
(10.392 0.748937 -5.519)
(16.8559 -3.55043 -5.43212)
(13.0555 1.35471 -3.26242)
(13.2921 -0.425891 5.91695)
(10.3376 3.31776 3.08197)
(7.09718 -3.02723 -1.38399)
(7.41997 -3.38334 -0.952744)
(15.911 -1.53109 -5.45194)
(11.8063 2.43801 2.49664)
(20.0802 1.13929 7.21792)
(10.93 1.35893 -4.26444)
(4.79754 -1.26677 1.27509)
(8.12375 -0.0190156 -1.93182)
(16.499 0.80253 -6.15655)
(13.7207 1.93005 -7.71366)
(7.16149 5.8645 -0.973103)
(6.70829 -3.68746 -1.85113)
(16.051 3.05093 -5.20959)
(4.32124 1.58355 -1.34605)
(16.7237 0.614068 -5.32015)
(3.54361 -0.989736 -5.4083)
(7.4091 -0.901408 -4.61186)
(2.30396 1.99549 -1.12685)
(6.01495 4.36015 -1.57911)
(5.38876 2.15579 -0.722487)
(9.35285 -3.42841 -6.93303)
(5.29789 3.418 -1.52556)
(9.73866 2.09584 -4.90413)
(1.91651 3.61151 0.565479)
(4.66138 2.87799 2.13202)
(2.03695 4.3773 0.397675)
(1.31792 2.86339 -0.213046)
(14.0955 -4.36552 0.906834)
(6.22904 -1.09722 -1.99345)
(19.5249 -1.05667 6.56967)
(13.2747 -0.949088 -3.95103)
(11.947 0.420098 -3.69483)
(5.81892 -3.26365 -2.36677)
(4.95679 -1.732 -1.93517)
(6.07983 -3.43247 -1.67227)
(3.78408 0.484826 -0.70672)
(13.591 1.05747 -3.80195)
(1.62939 1.7027 0.790475)
(5.05863 3.49359 -2.32214)
(0.906678 0.525216 1.4421)
(1.20296 0.321756 -0.0021374)
(21.1039 0.849308 3.88166)
(3.99012 1.04329 -1.18536)
(4.08665 5.12463 0.11654)
(4.37329 5.68139 0.553741)
(18.2059 -1.53254 5.54477)
(5.33112 -3.2916 -1.09441)
(5.64635 -1.08997 -0.218761)
(4.29925 3.89478 -1.29503)
(5.06548 -0.48824 1.16867)
(12.3879 1.90267 -3.49487)
(6.50355 3.30571 -2.06274)
(7.34502 3.6842 -0.825929)
(25.0267 0.396922 3.46757)
(12.777 -0.396681 -5.2678)
(21.8184 -0.529012 6.12092)
(12.9857 -0.0881035 -2.68767)
(15.97 -3.1822 -5.5472)
(12.4663 1.24301 -2.63339)
(2.6566 2.82714 -0.133777)
(8.01784 -2.2864 -3.45029)
(4.90976 -1.12412 -4.32965)
(12.8756 -0.323959 -2.60623)
(4.52723 0.241883 -0.797874)
(4.66578 -4.06706 -0.903106)
(20.0846 -1.68931 -4.96229)
(11.3826 0.334081 -6.43226)
(5.95236 1.02447 -2.4267)
(-0.784055 2.57522 0.21218)
(13.1773 -2.69905 5.55399)
(0.551128 4.17453 0.174232)
(7.50605 -0.290764 -2.26894)
(22.5001 -1.57407 3.15736)
(3.54691 0.721047 -1.21178)
(5.78577 1.86875 -1.08608)
(8.02739 2.23638 -2.21596)
(9.92328 -0.0190869 -1.57919)
(8.4229 -0.536449 -4.15698)
(7.47027 -3.12752 -3.09462)
(9.31128 -0.387238 -6.02195)
(5.19085 0.891809 -0.478898)
(1.85606 1.94281 -1.34215)
(0.642848 1.7902 -1.1553)
(22.4698 -1.45657 0.453385)
(6.0916 1.71887 -2.60516)
(3.58288 -4.18242 -0.914847)
(3.08558 3.88493 1.42334)
(3.18197 3.48253 0.0119885)
(5.57429 -0.100043 0.296248)
(9.63024 -1.92671 2.91009)
(4.01892 4.57859 -1.43393)
(11.07 -0.0210458 5.17435)
(5.86247 2.34507 -3.11119)
(6.91161 0.161791 -1.42446)
(5.21554 4.17303 -0.726148)
(20.8847 -0.186423 -2.54542)
(5.17593 0.518157 -1.04776)
(4.73536 -1.17908 0.137492)
(18.1746 8.54511 -0.430743)
(7.35428 5.33719 2.39632)
(8.49244 4.93526 3.34843)
(5.42031 5.69762 2.30265)
(5.78083 -3.13537 -1.01366)
(2.73426 -1.47261 -1.14087)
(8.64679 -1.16269 -1.941)
(19.8493 -0.335972 -2.88228)
(17.7636 1.38103 -6.14063)
(16.3983 2.48193 -7.94897)
(9.6161 -0.135098 -0.955395)
(3.13988 0.14442 0.593214)
(2.53714 4.17066 -0.517215)
(1.43103 3.98856 -1.2405)
(23.5608 -0.949329 0.911887)
(20.9022 -0.132576 5.04182)
(10.7633 0.196479 -4.49828)
(10.4343 0.180462 -5.75561)
(11.0984 0.948852 -3.23729)
(6.45672 0.296611 0.238784)
(7.615 5.34781 2.96671)
(23.2796 -0.552952 2.06586)
(6.79631 -1.52943 -0.860807)
(7.32514 -0.484226 -0.938571)
(17.5456 -1.04762 -2.02233)
(11.2018 5.34768 -5.03303)
(10.1942 -0.807483 5.26234)
(6.26357 0.983167 -4.47453)
(5.74479 3.51561 -2.07949)
(19.2848 1.04131 5.48605)
(1.11339 4.75558 0.209692)
(17.0118 2.55711 -6.64917)
(9.91661 1.55983 -6.90364)
(6.75279 -3.04363 0.494338)
(10.5086 0.995921 7.17156)
(5.20751 -3.38577 -1.21888)
(12.428 0.00346937 -4.87539)
(12.0064 0.913632 6.01725)
(17.8779 -0.799554 -6.83765)
(6.86821 1.60944 -2.93122)
(7.75572 -0.275994 -2.18368)
(11.882 0.659989 -1.92148)
(5.14852 0.61208 -2.1996)
(9.22929 1.36903 -2.29905)
(16.9502 6.71602 -2.78191)
(16.6685 -0.10311 -5.68613)
(14.2337 1.84142 -5.93731)
(19.147 5.62871 2.65292)
(7.05969 2.56417 -2.71341)
(14.2627 1.86606 4.69787)
(12.1471 2.14698 -1.7736)
(10.7613 3.64125 3.54445)
(5.40108 -0.49565 -1.78613)
(6.67426 4.75744 -1.42607)
(7.29414 4.77313 -0.392635)
(3.45548 9.76981 2.31229)
(11.9338 -2.65493 5.43956)
(4.2866 10.9346 1.89424)
(1.45699 3.479 -1.3003)
(2.50631 -1.39445 -2.07627)
(4.79554 2.92838 0.334542)
(1.47825 5.57646 -0.402152)
(-0.201986 3.84637 4.54839)
(0.942878 0.279955 -1.59467)
(0.668419 1.36938 -1.53603)
(15.0644 -1.13289 -7.07623)
(5.4124 -3.52393 -1.17172)
(20.5788 1.12162 4.15512)
(5.29327 3.98878 -1.02683)
(19.6554 -1.97223 2.66384)
(-1.25844 2.17727 1.58761)
(9.07841 0.717316 -3.63364)
(8.33268 1.46791 -2.35432)
(7.16933 2.91276 -1.58751)
(16.4011 0.640246 -6.23906)
(17.9555 1.91089 6.05421)
(13.9079 1.13832 0.817794)
(14.0467 3.74536 -4.50408)
(12.7455 -4.9784 4.54782)
(10.5175 1.82093 4.86456)
(13.6666 2.22637 4.69085)
(-1.83805 3.79152 0.499021)
(6.25127 2.67057 4.11492)
(19.074 3.9175 0.106179)
(7.50841 0.462649 -4.96883)
(12.6763 1.95891 3.85317)
(11.432 -1.2397 -3.87873)
(10.8762 -0.949646 -2.78574)
(6.08592 0.214074 -2.98468)
(16.5351 2.37063 -7.48057)
(0.139522 5.24189 0.0368266)
(12.0216 4.38665 4.81123)
(17.7401 -1.29041 7.57807)
(11.5555 5.14917 -4.40405)
(10.0801 2.09661 -4.04874)
(19.0418 5.60998 -1.123)
(2.72862 1.02846 0.0810142)
(7.88417 3.41231 2.11566)
(9.20396 -1.2566 -2.83986)
(13.3428 -1.80851 -7.15421)
(16.3787 -2.1088 -6.03535)
(18.851 -1.30927 -6.47001)
(17.9919 4.02532 5.11743)
(10.4011 -0.0930012 -7.19586)
(8.60615 -0.11673 3.62138)
(12.6355 1.68742 3.95677)
(11.7529 -1.1571 -4.14763)
(1.30148 4.46609 2.71622)
(9.67489 -0.359581 1.65642)
(6.82131 0.302456 2.38347)
(5.88634 5.00046 0.553288)
(10.8388 2.88251 -4.18587)
(12.3481 -0.303555 -1.65623)
(2.48345 1.67823 -0.444708)
(4.55657 0.793123 -0.267936)
(8.67992 4.1562 2.16142)
(10.6991 1.43672 -3.95681)
(15.6479 1.08387 8.16988)
(11.5425 1.81894 -1.90089)
(-0.521297 2.53671 -0.0700287)
(11.9521 2.67619 -1.75674)
(7.84653 -0.137265 -3.00365)
(18.6276 -1.30025 -1.84473)
(7.00548 0.793442 10.8408)
(13.8066 -5.65952 2.54477)
(7.38623 1.29897 -2.90281)
(2.41828 -0.244343 -0.653005)
(16.5049 4.35395 1.15117)
(19.0131 -0.757075 2.09977)
(23.4452 0.896783 4.581)
(24.579 -0.488015 0.612316)
(17.6901 0.134039 2.04301)
(10.2554 4.06956 -3.64429)
(11.2884 4.3802 -3.85703)
(14.2514 3.35543 4.56225)
(6.95262 3.60429 0.39101)
(7.26562 2.77919 0.374534)
(14.9355 1.21408 -7.99156)
(15.3221 3.48729 -4.91673)
(18.3961 1.29366 2.18057)
(2.67827 0.216974 -1.1546)
(18.4461 -0.381547 0.971612)
(10.4796 3.18271 -3.8328)
(18.0887 -1.57492 -1.21671)
(18.541 2.92157 -1.64246)
(14.8277 -2.53369 2.1218)
(20.3037 0.657996 3.3424)
(3.59661 0.0684734 -0.991563)
(9.71591 0.173675 -3.60748)
(11.5206 -2.54433 -3.3481)
(14.3554 -4.7434 -1.88362)
(5.3516 -2.32216 1.28558)
(8.44682 2.3003 -3.34312)
(5.87202 1.80962 0.240269)
(17.9952 5.23443 1.61147)
(1.79815 5.91152 6.13278)
(20.2409 4.22709 -1.43393)
(2.79426 1.40676 -0.576524)
(13.5931 2.60662 -6.35637)
(-1.14772 7.38531 2.61497)
(8.26593 -0.545418 -3.01815)
(13.2061 0.0371253 -6.2106)
(18.7769 -0.389773 5.28149)
(13.8551 1.16726 4.26254)
(4.68835 3.57247 -0.782051)
(16.2079 -1.33191 -6.99347)
(7.18159 2.38986 -2.97922)
(6.57232 1.60476 -3.5475)
(10.9614 2.03221 -3.75191)
(6.69027 0.221796 -3.16836)
(18.4023 1.35136 -0.576273)
(20.7804 2.38098 1.75486)
(8.43756 -2.75005 -3.40345)
(18.9579 -2.80433 0.896258)
(11.1578 -0.569869 -6.89081)
(16.7773 1.47092 6.7265)
(7.85474 -4.75514 -3.26484)
(7.72552 -4.04507 -1.95567)
(18.4456 2.23881 -0.444017)
(20.3994 -0.731967 3.16805)
(20.6186 -0.564246 0.991403)
(-0.266222 5.57215 1.77524)
(13.4537 0.0181434 -4.06297)
(4.43508 0.14941 -2.99698)
(14.577 3.57173 6.36093)
(16.6935 3.73294 5.87976)
(7.82791 3.65098 -0.107625)
(4.40022 1.35358 -0.478998)
(5.11725 3.17782 0.974151)
(13.8148 0.468614 -5.39823)
(14.6985 5.17703 5.18959)
(16.7462 3.93207 6.62728)
(7.24622 2.4172 -2.98012)
(24.2272 -0.123201 2.69015)
(1.53836 4.99162 -1.38491)
(7.97057 -1.9123 0.746344)
(7.78747 -0.76196 -0.183782)
(3.06929 -2.57261 0.566712)
(11.9775 2.96416 -2.00384)
(20.7341 -0.962393 3.14407)
(9.68114 -0.1055 -2.83842)
(16.6917 -0.124928 -5.63053)
(1.64081 1.83514 0.105753)
(13.1144 0.154297 -4.82229)
(5.29363 1.70229 -0.968341)
(4.50191 2.29892 -2.93384)
(10.1174 -0.875887 -3.10404)
(6.64742 -0.85848 -0.110759)
(9.64637 -1.49076 -6.48658)
(20.964 1.30722 4.60216)
(20.1798 -1.31575 1.12413)
(8.45434 -0.238902 -3.58559)
(7.79242 -2.75773 -2.06711)
(4.15623 4.47727 -0.814399)
(7.9859 1.21283 -3.76732)
(14.891 4.33088 5.06699)
(14.5139 0.895077 3.8893)
(3.04335 3.79249 -2.23432)
(9.91624 1.06006 -3.61772)
(10.6131 0.451485 -6.53462)
(6.51379 3.71823 -2.87358)
(-2.36872 3.36498 0.717191)
(17.7787 3.24862 -3.09509)
(19.3069 1.13712 0.0663924)
(7.82804 5.61457 -1.23228)
(18.1838 -1.91624 6.0648)
(16.8255 -1.35668 7.73691)
(0.627982 3.02038 0.34307)
(5.075 1.68722 -2.70034)
(6.29015 2.35871 0.0256907)
(10.376 1.13236 -4.04564)
(0.555782 4.93964 3.17867)
(4.76584 -3.49051 -1.28248)
(20.0284 -4.82249 5.16544)
(13.233 -2.02122 -5.99156)
(8.86961 2.81183 5.66196)
(20.5396 2.99838 -1.31616)
(-1.67884 3.81622 2.29448)
(9.74184 1.42539 3.99328)
(20.1154 0.637519 7.31851)
(15.5031 1.51004 8.1477)
(0.508724 2.11311 0.0596307)
(1.45206 3.25115 0.102253)
(6.77437 3.79953 -3.16673)
(8.49681 11.3006 1.85619)
(8.94629 1.43811 -2.97879)
(10.2118 0.620862 -4.65571)
(10.5368 2.55319 -2.40485)
(7.80064 6.01374 3.13419)
(9.23441 -1.45259 6.14529)
(17.5256 -0.790894 -8.08126)
(10.275 0.79558 -3.54154)
(4.16588 2.90253 1.10838)
(8.90135 0.603298 -3.96695)
(6.9546 3.28351 -3.31515)
(10.0762 2.73269 7.28377)
(13.1786 -0.267935 8.18284)
(23.3884 1.63724 1.96523)
(15.77 1.80329 6.53711)
(11.6436 0.277712 -4.6323)
(9.71352 1.96016 -4.14374)
(9.41702 2.40399 -3.45597)
(9.28581 -4.53585 1.339)
(4.3737 1.7788 -0.362405)
(8.40576 -1.08935 0.69033)
(3.34381 2.97919 -1.23058)
(4.43814 5.114 2.08172)
(9.85966 -0.817566 -2.21365)
(11.5132 0.459774 -5.26763)
(9.75639 -3.53806 1.35875)
(3.4136 3.96715 1.1598)
(0.51537 0.980057 0.751928)
(6.20928 2.59709 -0.891777)
(12.8048 1.53211 -4.71531)
(10.3964 1.60323 -5.48352)
(11.7273 1.96075 -4.53701)
(12.4197 3.2343 -5.29207)
(12.3557 -0.979583 -4.63497)
(1.37824 3.38461 0.500765)
(15.9375 -2.73133 7.81023)
(17.5785 -1.41547 0.619197)
(7.90169 1.39734 -4.74044)
(19.8993 2.13311 5.28072)
(12.5115 -3.04124 -2.19972)
(15.2131 -4.05453 -1.18713)
(15.8179 1.58547 -1.8773)
(18.952 5.49423 -1.64342)
(9.71467 -2.54379 1.82281)
(10.5378 1.55623 -1.27984)
(3.93332 0.571567 -2.49483)
(21.3724 -2.38098 5.42184)
(15.9335 1.3615 -8.29786)
(6.86444 -0.145464 -0.549552)
(8.07429 5.61892 1.05084)
(12.1739 -2.56049 -2.00917)
(4.93591 1.41849 -1.10183)
(13.9306 -0.500911 -6.95392)
(12.4537 1.03903 -7.14828)
(11.6383 1.12669 -6.21747)
(9.24817 0.963635 5.3547)
(6.43727 0.0206133 -2.25882)
(18.182 5.82586 2.79131)
(17.365 7.11979 3.07323)
(16.8513 2.13332 -6.45226)
(11.8196 3.67929 -3.04135)
(7.74948 -3.07247 -1.45713)
(12.0979 -0.872154 -4.67321)
(3.83665 -1.08802 -2.07094)
(6.17565 3.89704 -2.93456)
(3.69336 0.134365 0.631184)
(4.63275 -0.245613 0.510273)
(8.49819 -2.5642 -2.55904)
(10.2523 0.903102 3.96)
(0.00906069 4.93099 3.31956)
(0.258583 3.52123 0.33042)
(21.1058 -0.541798 3.49294)
(5.67959 2.56016 -1.66852)
(3.29529 2.70661 -0.203756)
(14.2079 -0.137512 -4.30143)
(13.053 0.00553275 8.14608)
(18.4553 -1.22405 1.32238)
(6.96524 -2.01192 -2.62207)
(7.40953 -3.08764 -3.29997)
(7.16986 3.89696 0.821412)
(6.07362 1.28819 0.223611)
(2.71648 0.581215 0.508564)
(2.22282 -0.196639 -0.854399)
(7.70399 4.75406 -1.93492)
(8.17969 3.40813 -4.35266)
(3.28082 -3.53692 1.26108)
(12.5358 -0.830356 -6.30044)
(13.0489 0.964174 -6.32611)
(10.3611 -1.87077 -8.39158)
(14.2455 0.106463 -9.19704)
(17.0011 -4.64118 -5.12173)
(12.7364 -0.113404 3.60941)
(6.10239 2.73237 -2.16372)
(5.91372 2.63799 -3.02127)
(5.48395 1.91058 -2.86946)
(18.6133 4.72478 4.87497)
(20.4048 3.2133 5.7059)
(13.1969 4.98161 -3.82302)
(7.99945 7.41746 -0.29381)
(5.28329 4.74786 3.44747)
(15.0611 -1.13477 -1.38311)
(19.3805 2.73887 -2.23094)
(9.50285 -5.61745 1.79792)
(19.3181 -0.903554 5.65413)
(5.97654 0.78323 -1.68745)
(5.28796 0.790572 -3.09404)
(6.32572 -4.25868 1.89866)
(8.81075 4.22088 1.56805)
(5.47293 2.78181 1.05598)
(7.28573 -0.465195 -1.71926)
(18.8769 1.10709 2.68466)
(0.583016 5.39151 1.86979)
(6.43237 1.92055 0.15669)
(13.7376 2.23941 0.869444)
(7.0269 3.64421 -5.31944)
(-0.374394 6.09944 0.636627)
(7.7499 -0.757143 -1.92084)
(7.57206 -0.966972 -4.45253)
(6.0086 -0.527755 -3.55177)
(9.51302 5.29783 3.12568)
(17.824 0.348708 -1.7359)
(17.6995 -1.53429 -1.35638)
(18.2431 0.541602 -3.00015)
(19.5017 0.903452 -0.564779)
(19.8729 0.864512 1.9442)
(14.7981 2.4273 -7.5206)
(21.132 -0.0642007 -0.0811082)
(11.8936 -1.43168 -3.08653)
(7.34548 0.747634 -3.04983)
(9.46642 -0.633109 5.12993)
(8.59332 1.97683 3.29666)
(4.4262 3.30778 1.07022)
(5.65878 5.67298 1.51828)
(14.5491 -4.06116 0.821647)
(13.4163 0.409981 -5.39188)
(14.497 0.282121 -4.61232)
(14.9209 -0.295041 -7.67055)
(1.3058 -0.44772 0.841126)
(1.58725 -1.79392 0.0601367)
(0.896652 4.5196 2.13322)
(13.3387 0.505811 -2.39437)
(11.6126 -1.96902 -1.42287)
(18.3661 4.6131 -0.152753)
(15.443 -0.796361 -7.92299)
(13.3352 -3.83053 -1.60805)
(20.5088 1.32506 2.4306)
(8.62784 -4.58181 -4.21083)
(14.1215 3.96898 7.13018)
(17.6405 3.14066 -0.677254)
(4.42621 2.4201 -1.14833)
(5.02072 1.0494 -1.17469)
(2.11784 0.372012 0.470669)
(4.13217 3.67421 -2.58662)
(5.82622 1.94533 -2.00969)
(6.62451 1.15696 0.070789)
(7.16345 2.47705 -1.90256)
(5.82893 -0.573802 -3.76757)
(7.47431 -0.510231 -2.49955)
(4.97886 1.21674 1.33212)
(7.58757 -0.37925 1.04564)
(7.86466 -1.80911 3.40568)
(19.3995 3.17933 4.03271)
(5.09987 0.557957 0.406537)
(6.6605 2.36222 -2.22496)
(7.07326 3.0902 -2.75571)
(10.2475 2.25857 4.56426)
(3.23276 1.0713 -0.407998)
(12.5263 4.11809 -3.74988)
(13.1385 1.20315 2.58603)
(12.7715 -0.328936 1.98713)
(4.81676 -1.95288 -1.97898)
(10.883 3.57333 -2.65384)
(19.7967 1.23303 4.06727)
(2.87988 -0.781308 -1.82789)
(13.7289 -0.751463 -6.51579)
(17.3477 -1.04337 -6.51474)
(3.70465 6.89883 0.873885)
(13.9931 -4.22797 4.84856)
(6.69122 1.72251 -3.08905)
(7.58035 2.49842 -3.22282)
(7.67857 2.70369 -2.2224)
(6.15179 12.0837 2.58692)
(15.529 -0.622145 6.99773)
(8.60165 0.9268 -3.6961)
(-1.77374 0.379136 0.738751)
(13.899 5.52042 -6.7419)
(10.1884 -3.33917 -1.67775)
(21.5909 0.352583 -2.61319)
(7.72204 4.72108 -2.68958)
(6.12213 -1.7799 3.40776)
(16.4363 5.32025 7.77277)
(5.74292 1.6563 -3.04106)
(3.98723 4.53283 0.428313)
(12.7128 2.6437 -4.35987)
(7.6773 -3.59631 -3.26471)
(2.34142 1.71133 -0.00377393)
(8.04953 1.72598 -4.67169)
(14.1961 1.23398 -5.35932)
(7.31886 4.30867 3.07895)
(12.9717 0.785949 -7.40109)
(12.8478 0.73197 3.7154)
(6.56771 -0.259387 -0.0888186)
(2.14473 4.53125 -0.641544)
(4.49433 4.75981 0.382035)
(1.78131 2.54879 1.91518)
(14.2854 -1.23607 3.01449)
(15.2974 -0.0555517 4.17929)
(8.68378 0.132283 -3.79022)
(4.8425 -1.1158 -2.25439)
(2.84822 -1.8754 -2.20264)
(13.4691 -2.47769 -4.87493)
(22.9563 1.50338 -2.26091)
(13.6582 -2.61377 6.39082)
(15.8557 -1.78742 7.91355)
(13.0497 -3.29753 -0.743391)
(18.0926 1.38413 -4.97122)
(3.85743 0.296495 1.46459)
(22.7375 -2.61842 0.449108)
(3.58877 3.60986 -2.53142)
(7.34808 -0.847669 -1.31496)
(12.5101 2.90117 -2.59417)
(18.9223 6.02994 0.417794)
(7.29653 0.255201 -3.11524)
(5.57467 -1.31665 1.4412)
(3.66767 3.84497 -1.74269)
(16.5852 -0.977887 -2.28615)
(9.9098 3.47192 4.41241)
(4.13729 2.86678 1.12328)
(3.95096 2.64677 -0.0740214)
(22.843 -1.71046 -0.301915)
(4.5993 0.969413 -0.976287)
(6.00878 0.364079 -1.64877)
(5.72266 -2.05767 -1.44073)
(8.39094 3.35087 -3.8885)
(9.29487 4.0668 -3.73152)
(10.2437 1.74468 4.66319)
(10.5089 -3.76011 2.06884)
(6.61557 -0.260287 1.24008)
(15.8119 2.87112 -6.13287)
(6.03459 -0.672394 1.88633)
(3.73007 2.30102 -0.986)
(15.6058 -2.28708 -5.44849)
(1.6093 7.83266 0.290619)
(12.0413 -2.62118 1.43007)
(10.1927 -2.43936 -0.168161)
(13.8443 -1.98973 5.01028)
(15.4506 -2.04241 5.57318)
(15.5801 1.54884 -8.1301)
(6.44667 0.287557 -4.57043)
(19.7952 1.50667 -0.880576)
(19.0344 0.724971 0.966939)
(16.6329 -3.06539 4.90694)
(3.75742 3.94145 -0.913667)
(3.07339 4.37756 -0.985197)
(7.93167 2.37697 -3.78128)
(10.9964 -2.95934 -2.24432)
(14.2121 0.894302 -7.91657)
(1.94881 1.25147 -0.487988)
(12.7056 0.275576 -5.04952)
(10.9621 -0.0788057 -0.941953)
(12.6661 0.329277 7.01084)
(11.2819 -1.97805 -3.96826)
(2.52445 7.34066 2.38781)
(9.59947 -3.25483 3.41365)
(4.74119 6.64756 1.07213)
(5.46639 -2.6 -2.41733)
(9.30237 -0.551884 4.04331)
(0.0618878 0.878966 1.25588)
(6.32347 2.06938 -0.334878)
(12.7693 -0.944558 -1.6861)
(10.0056 0.931072 -5.60439)
(15.2189 0.771653 -8.5677)
(22.3476 2.0282 -2.46353)
(19.3541 0.429107 -4.50075)
(11.5851 0.640962 -5.20947)
(13.7237 1.16036 -4.12157)
(2.16278 5.07806 -0.0209702)
(14.6995 3.07534 4.63636)
(3.66672 1.02543 -0.524042)
(17.9845 -3.26963 1.71607)
(17.757 0.371577 1.69578)
(14.3959 -3.93234 -2.178)
(3.61428 5.14164 1.28877)
(1.23624 2.92892 1.37494)
(9.93027 1.43792 3.17317)
(3.87162 0.027877 -1.63227)
(12.6745 -0.948064 -4.33565)
(9.01207 3.19088 2.63546)
(7.3835 -2.32049 -1.39802)
(22.2734 0.380062 -3.48142)
(17.5941 5.37601 1.14645)
(9.05229 9.36793 3.41072)
(14.9495 0.204102 -4.96322)
(14.0726 -0.636478 -5.48184)
(7.23895 -1.1139 1.18236)
(3.67283 2.22968 -1.78294)
(4.45529 -1.98183 -0.232212)
(12.6401 5.63687 -5.84987)
(18.9448 -2.36858 -2.209)
(14.4709 4.23105 8.39811)
(2.01339 4.72138 0.728415)
(17.274 4.44967 -1.99054)
(14.4033 6.18991 -6.54454)
(19.0383 6.21148 -1.1378)
(17.7704 5.70311 -3.7606)
(9.61019 0.648651 -3.71236)
(8.59105 2.62026 -4.332)
(3.41312 2.84901 -1.02102)
(7.05685 -3.11029 -2.65107)
(8.65872 -3.15973 -1.37976)
(1.54269 4.60216 1.87587)
(6.70464 -1.75308 1.29924)
(9.42266 3.02757 -7.53082)
(4.22598 0.209414 0.194936)
(12.015 3.12816 -3.64867)
(9.68514 -0.202424 3.45602)
(9.82009 1.13706 6.54261)
(13.7632 2.39136 3.89957)
(4.31401 4.64069 0.719093)
(3.975 0.0273054 0.18495)
(18.5624 2.95767 6.07439)
(7.93825 3.50541 2.95454)
(15.7123 -2.7124 -3.95504)
(8.22318 2.34196 -3.00131)
(0.130673 7.69082 2.19931)
(0.646542 4.65451 0.548438)
(0.203669 5.54956 1.12368)
(-0.172617 2.15763 -0.0148914)
(6.35801 -2.84088 4.47013)
(7.69177 -0.475114 -1.95756)
(8.84587 0.152817 -2.57256)
(8.27856 0.501128 -1.55637)
(10.6793 -0.534811 -2.72924)
(15.0303 -4.52752 0.534638)
(7.65173 1.02827 5.87789)
(12.0151 0.76649 7.32988)
(19.9344 -1.93539 -6.98501)
(15.2412 -0.518613 -7.36173)
(7.70219 -1.10609 -3.37948)
(8.69965 -1.32416 -3.74345)
(22.0323 -1.6519 -1.80357)
(8.19394 5.37309 2.68233)
(4.3454 3.19276 -1.39568)
(4.4697 1.18955 -2.26076)
(5.44197 1.1073 -2.51659)
(18.0403 5.77788 1.97989)
(18.3717 5.81197 2.03111)
(19.0047 3.85859 2.86094)
(3.19993 4.51968 1.3127)
(8.56118 3.66747 -1.32773)
(5.88406 3.16829 -2.1123)
(1.93001 0.612425 -0.607452)
(6.53708 1.45846 -5.07487)
(6.01371 -2.83375 -1.67714)
(6.455 -1.23371 -1.33997)
(21.9641 2.1459 5.08101)
(15.0967 2.31706 6.80266)
(6.15189 -0.33767 0.552104)
(17.3516 7.81924 -3.81926)
(3.61997 3.73489 -0.847981)
(7.23557 0.281925 -4.81425)
(7.50238 -0.497126 -3.73422)
(10.4647 -1.10464 4.45789)
(4.25342 -0.911761 -1.18359)
(17.3592 -3.5797 -5.8511)
(10.5979 2.42972 5.24398)
(5.62011 -1.08699 -1.8059)
(11.2165 4.45676 2.75788)
(1.02394 9.70464 3.97717)
(2.39904 4.8799 -0.0187293)
(18.6731 6.40884 3.65447)
(18.3277 6.34829 0.664186)
(10.7862 1.0757 -1.41031)
(14.3734 0.0150649 -2.58894)
(13.6875 2.98823 -6.44281)
(10.577 1.04979 2.69293)
(5.54202 -2.6408 -1.62387)
(0.777482 4.1192 2.36586)
(15.0092 -5.70775 5.62155)
(8.67496 1.12187 -3.80363)
(9.4951 4.23476 2.54665)
(10.0025 4.10512 2.11004)
(7.02042 -4.80404 -1.83497)
(11.9964 -0.813553 4.64056)
(-1.45322 5.29739 0.581596)
(13.9247 3.29412 5.00628)
(20.4442 0.719935 -0.240729)
(18.8979 0.942146 -1.16629)
(18.3649 -0.968853 -2.73606)
(5.39781 0.262869 -4.91322)
(-0.562804 2.32399 -0.281743)
(3.43015 3.70335 1.26068)
(0.37013 4.29729 0.261831)
(16.8762 5.25751 7.72948)
(14.8804 2.03134 -8.41033)
(1.5877 1.25963 -0.638501)
(15.5134 -1.25386 -6.41419)
(6.58818 -0.933999 -2.10173)
(13.0335 0.290851 -1.84232)
(17.0108 -1.12226 -7.74352)
(6.33856 -2.91127 -1.96876)
(10.6316 0.442626 3.91821)
(20.6256 -1.26374 -4.44489)
(21.3776 -0.376878 3.92379)
(0.453947 -0.212868 0.328907)
(7.78273 -2.9735 -3.29639)
(8.37492 -3.34738 -2.2525)
(9.39756 1.93655 -2.67458)
(9.26668 3.17002 -4.24882)
(0.476052 7.89397 2.27166)
(-0.844461 4.14577 0.878344)
(10.1692 1.66775 -3.26655)
(8.22633 -0.948893 -3.20959)
(9.49251 -0.882915 -3.54446)
(6.87162 3.22332 -0.357843)
(6.99258 -2.97457 0.985207)
(11.7872 -0.708918 7.64749)
(3.59802 3.97255 -1.94354)
(11.1651 -0.478094 -5.11139)
(22.1595 1.49202 -0.354718)
(20.5054 0.740561 3.18694)
(7.33621 -2.26024 -0.95504)
(10.4292 -2.18128 -5.65312)
(11.6258 0.151576 2.21107)
(18.0337 -0.800248 -2.11811)
(19.2584 -0.0841328 4.94361)
(2.95099 5.16923 2.37645)
(9.21152 0.830225 -3.45504)
(1.0921 9.15955 2.65466)
(4.84476 6.47088 1.25257)
(7.03375 1.53634 -3.03874)
(3.00361 3.33193 2.09179)
(2.93869 5.15323 2.06767)
(7.57173 -1.91138 -2.53324)
(17.0219 2.66684 7.97858)
(20.1023 0.890671 4.93958)
(5.94957 6.04084 1.54699)
(14.013 1.43532 6.84221)
(2.70086 0.595416 -0.937421)
(12.8003 0.0843442 3.83099)
(19.887 -2.96277 -0.742717)
(11.0122 2.06276 -3.99919)
(11.0812 1.97648 -4.69103)
(14.1996 0.4005 -7.48873)
(13.2081 -6.30639 -2.11119)
(19.0916 2.01467 -1.48452)
(13.295 -1.33178 -5.79272)
(-0.0836387 2.67015 -1.0556)
(17.0769 3.26757 -4.4017)
(14.913 2.73074 -5.45996)
(9.99181 4.24715 -3.34802)
(15.9026 3.87992 4.59457)
(5.99185 2.56613 -2.8746)
(6.19362 -4.16661 -0.782471)
(6.50033 -5.20537 -0.334622)
(11.9507 -0.443238 6.93395)
(14.8105 -3.47802 7.57549)
(4.49912 4.4553 1.57083)
(5.87198 -0.902204 -1.00327)
(11.6056 1.58837 6.81615)
(17.8576 5.98383 8.45665)
(16.4681 -0.902736 6.92516)
(13.7226 0.695792 7.10303)
(16.6756 4.75687 4.52098)
(19.2469 4.54055 3.09755)
(5.37718 -3.57645 -1.55332)
(8.38053 3.00083 2.87163)
(8.27828 2.69121 2.27188)
(13.0836 -2.67759 -0.430589)
(10.7813 -2.29715 -2.62653)
(18.1139 5.06189 7.06392)
(21.0828 1.36311 4.03647)
(22.0032 0.536342 2.76809)
(11.1466 -2.80216 -5.16147)
(1.07353 7.68946 3.45889)
(15.1228 -2.65495 5.68798)
(6.00476 -0.83231 1.27728)
(7.84821 2.65271 -2.82199)
(19.3636 -1.72386 -5.87176)
(18.9319 0.798569 1.48207)
(18.6442 2.14014 -3.99143)
(10.7342 -1.64371 -4.4986)
(15.642 -4.79049 2.14747)
(7.60236 3.59709 -2.79158)
(7.0835 1.59243 -2.77913)
(5.67044 -1.67065 -4.27238)
(9.58616 -3.09088 -5.30422)
(9.43549 -3.36731 1.54148)
(11.3282 1.81969 5.77961)
(8.01058 0.0256606 3.87076)
(15.5507 4.83731 -4.34267)
(12.0482 0.778939 6.89953)
(5.74356 1.11434 -1.49078)
(7.68765 0.0294275 0.228327)
(11.3798 2.28619 3.6326)
(13.5847 -2.18798 3.84373)
(14.8052 0.352839 -1.96213)
(6.39498 2.36935 0.421249)
(8.23193 6.24385 0.873811)
(3.04209 4.69339 -0.140973)
(-1.69097 4.39807 -0.407159)
(7.47399 -0.966076 -1.31249)
(8.79991 -3.67897 0.646486)
(7.30832 8.84348 1.58785)
(11.3371 -0.748999 2.88727)
(11.777 -0.0582179 3.7701)
(2.95458 3.34887 0.712414)
(3.00151 3.28519 0.222943)
(13.9997 -0.535929 8.03493)
(4.31239 -0.0556603 -1.43342)
(6.81463 -1.05352 -1.27139)
(1.12837 7.50789 3.31698)
(14.2884 -1.14176 -0.953112)
(5.46165 2.58782 -1.58458)
(6.47689 1.41509 -1.70533)
(6.97376 1.57127 -2.30304)
(5.42203 -0.228307 -1.88142)
(21.4136 1.62673 -5.40566)
(12.3403 1.78267 -3.60099)
(4.71839 -2.30998 -1.05936)
(0.870949 3.41708 3.23433)
(11.304 -1.47372 -3.91311)
(11.6559 1.64252 -4.61254)
(10.4014 2.56982 -2.55289)
(5.12311 3.26285 -1.21612)
(13.516 -0.936375 -3.53696)
(14.7444 2.48396 6.15173)
(16.6628 -3.85201 -6.1073)
(8.85653 2.68572 -2.96441)
(5.76397 -2.3558 -2.11659)
(3.91935 3.89008 -0.983328)
(5.72274 6.53021 1.37206)
(4.06262 4.24393 4.39293)
(3.39556 3.05186 1.20241)
(16.5071 -0.260797 3.39443)
(17.2314 0.539805 2.164)
(6.65239 1.19429 -2.46232)
(16.8896 2.10495 -5.08288)
(5.91939 1.27245 -3.11151)
(8.02896 5.07621 -3.35131)
(8.61314 5.1376 -2.56182)
(13.4989 1.66403 -7.9872)
(20.6293 3.17476 -1.79209)
(19.1899 4.40008 -1.37475)
(20.1717 2.59023 5.53789)
(18.3989 4.60909 2.15637)
(8.11233 -3.67606 0.162059)
(9.2155 2.21132 -4.41325)
(9.9664 0.417962 -2.95035)
(14.7513 -1.36977 -4.32181)
(16.3478 5.18343 4.22024)
(18.1808 6.27498 3.59573)
(14.1665 1.08697 8.13856)
(2.82255 3.07827 1.19097)
(19.6703 1.21479 -3.95406)
(6.66877 -2.08982 -1.8578)
(5.63794 -2.34567 -0.895127)
(21.6891 0.629017 -0.834113)
(12.3355 1.89839 -3.98057)
(12.8608 -0.188339 -4.30788)
(15.5636 1.77132 6.98001)
(5.63163 0.830991 -2.43888)
(8.2418 -1.62473 -2.01257)
(10.8471 3.79614 -3.62312)
(5.10826 -6.78211 4.70878)
(10.687 -0.159885 2.35096)
(8.20498 5.726 2.75909)
(5.30033 2.87985 0.563455)
(14.8732 -0.00691426 -2.08183)
(18.552 1.25653 6.95542)
(7.36602 -1.98746 2.41339)
(1.16657 2.37636 -0.105625)
(8.35219 -1.07001 -0.800403)
(3.85914 2.46756 -0.546436)
(14.1434 -1.84398 -6.33359)
(8.67933 -3.48983 -5.52107)
(13.0967 3.71285 -4.51757)
(5.8561 1.74718 -1.02807)
(5.95682 3.27798 -2.30879)
(12.5283 1.53522 5.9708)
(2.96396 -2.19362 -1.7729)
(14.2488 2.23063 -4.53904)
(4.80611 1.16974 -2.21684)
(3.17917 -1.69336 -1.64944)
(9.08976 1.138 -2.73247)
(9.14922 2.57862 -2.08167)
(9.78554 -1.23742 -3.88231)
(9.98938 -0.00894374 -4.2755)
(14.7989 1.82753 -8.39832)
(15.873 1.84399 -6.25399)
(12.6142 -0.972601 -2.32683)
(1.72985 1.7096 -1.13985)
(13.114 1.27203 -2.52786)
(15.4548 3.38422 4.80191)
(13.6962 0.101099 2.65081)
(7.78394 2.92504 -4.2124)
(18.7649 0.755178 5.94769)
(13.3367 -0.627138 -2.35951)
(12.8434 1.72447 7.27742)
(11.3595 -0.0869277 5.68744)
(1.29325 3.53838 2.26565)
(6.41458 2.16797 -3.35346)
(7.4716 1.96848 -2.96555)
(23.595 0.426582 -1.66881)
(0.838127 -0.49433 -0.171823)
(7.57113 1.22278 -4.27471)
(15.3834 0.728411 -7.12278)
(13.8662 -3.92792 6.82651)
(13.2372 4.11828 5.59757)
(17.7787 0.791861 -2.90553)
(18.6422 -1.57616 -3.42198)
(17.2499 -1.33327 -4.57986)
(18.638 -2.25455 -2.42549)
(18.3737 -2.00737 -4.10024)
(15.8951 0.361036 -3.1638)
(15.8001 -0.477008 -2.87588)
(-1.19319 2.71251 -0.046066)
(-1.7391 1.27991 -0.240868)
(-0.494286 2.89643 0.543939)
(7.86119 -0.116487 -1.15567)
(18.436 1.51851 2.46276)
(15.553 -2.85873 1.63555)
(5.84758 -4.08301 -1.8672)
(22.4789 -0.0692583 -1.86227)
(3.35664 -0.719709 0.00964758)
(18.2664 2.61709 -2.78591)
(20.5425 2.09409 1.06357)
(2.19293 1.6691 -0.850084)
(5.2629 1.34828 -1.36079)
(16.2143 2.87996 6.11563)
(9.00069 5.21328 -3.77837)
(20.6772 0.890711 1.74392)
(20.0819 1.22439 -0.468556)
(20.6686 -2.72844 -2.76838)
(17.34 4.46921 5.11524)
(8.54408 0.869099 -1.35394)
(8.56704 4.67201 -2.97145)
(8.94471 4.67662 -1.85011)
(4.15513 -0.133935 -2.39484)
(8.13642 3.80955 -4.59574)
(6.54116 -1.22555 -1.2982)
(14.823 4.55966 -4.98766)
(4.91763 -2.77669 -1.51185)
(5.98239 3.70219 -2.08358)
(6.76743 2.92541 0.0815752)
(12.3425 -1.26953 -6.86882)
(3.88711 3.06234 -0.0019781)
(0.458044 2.18448 0.0877545)
(7.42044 3.15123 1.44107)
(19.0014 0.999645 0.697806)
(13.4926 -0.511362 -5.41043)
(14.3692 -1.06841 -5.97378)
(9.14448 1.17685 -2.76224)
(10.2512 -0.526115 -4.42611)
(21.6667 0.879878 2.93356)
(5.75378 4.10102 0.666048)
(11.2468 -3.1082 -3.61432)
(5.43792 -0.363426 2.91565)
(13.6316 -0.428421 -7.13814)
(5.65496 -4.77952 -2.07278)
(4.75032 2.97579 -3.04628)
(-0.192979 3.94671 0.191787)
(-0.350493 4.8487 -0.0912402)
(10.139 2.65029 7.79667)
(16.6068 -1.08631 -5.13737)
(12.3669 1.13448 -7.22974)
(20.3801 -0.106595 5.85246)
(5.56336 -0.948758 3.46919)
(11.8808 3.14696 -2.235)
(13.9587 0.275182 -3.73542)
(5.35688 1.04168 -0.503071)
(14.8922 -1.53226 -5.83349)
(12.2386 1.18711 5.11261)
(2.89908 -4.10077 -1.91451)