/*--------------------------------*- C++ -*----------------------------------*\
| =========                 |                                                 |
| \\      /  F ield         | OpenFOAM: The Open Source CFD Toolbox           |
|  \\    /   O peration     | Version:  2212                                  |
|   \\  /    A nd           | Website:  www.openfoam.com                      |
|    \\/     M anipulation  |                                                 |
\*---------------------------------------------------------------------------*/
FoamFile
{
    version     2.0;
    format      ascii;
    arch        "LSB;label=32;scalar=64";
    class       volScalarField;
    location    "10";
    object      epsilon;
}
// * * * * * * * * * * * * * * * * * * * * * * * * * * * * * * * * * * * * * //

dimensions      [0 2 -3 0 0 0 0];

internalField   nonuniform List<scalar> 
305690
(
338.092
59.8691
89.1818
276.259
84.1493
301.558
141.535
169.502
254.346
89.7692
191.398
288.386
130.045
251.394
155.655
155.127
498.958
47.711
208.582
231.281
56.0138
153.977
92.5645
86.6647
68.6792
163.146
220.229
85.9293
112.214
153.895
77.6075
283.273
55.5847
111.859
145.921
146.6
95.5709
77.6334
95.155
241.196
54.2689
110.367
269.576
235.536
115.711
102.305
123.921
227.325
373.922
180.999
275.689
107.272
47.7463
116.477
478.138
509.608
81.604
70.4932
415.004
516.133
571.164
49.7506
689.683
165.666
395.807
391.334
529.672
239.472
508.824
120.186
500.851
457.242
355.478
463.21
575.288
160.541
182.151
447.997
143.479
43.7026
179.206
162.622
190.021
43.9312
406.152
86.6209
309.081
49.3469
51.2438
367.97
108.083
253.571
366.681
153.305
155.605
210.638
145.262
132.083
67.394
91.9321
147.256
64.032
245.026
166.588
1009.03
271.366
438.09
512.402
64.1824
113.363
107.285
692.189
193.434
116.345
87.2604
61.842
588.406
176.941
191.681
185.656
184.198
154.627
80.8624
44.6497
172.864
170.621
418.16
174.999
194.769
319.801
45.6644
51.5526
780.505
43.6244
627.224
50.3736
222.149
558.309
197.678
98.4409
292.096
212.531
187.244
225.27
251.967
127.051
182.113
211.208
258.982
73.7096
125.005
593.404
95.8928
586.348
189.648
346.53
70.692
48.2614
103.452
187.291
185.406
172.469
551.113
948.053
258.994
464.49
269.823
268.019
48.4733
132.756
180.11
118.315
99.5741
103.588
119.736
191.997
182.281
228.629
168.149
261.589
205.086
88.5139
52.1403
41.3724
112.618
168.914
313.408
105.46
154.129
285.965
331.226
125.658
82.4782
477.623
465.402
412.968
622.706
382.315
84.4134
91.1435
193.955
323.813
145.043
146.384
66.9951
83.4656
423.834
490.269
720.642
656.84
141.861
347.958
180.574
201.203
157.997
291.593
172.197
76.4654
349.598
124.711
165.59
165.949
224.7
192.414
412.185
478.175
116.612
129.853
88.8601
122.645
114.24
256.547
226.149
657.016
663.648
570.814
505.319
275.225
102.01
156.502
418.875
60.7411
84.8928
127.253
574.475
77.8232
190.075
69.7405
44.3695
76.5898
212.172
170.928
91.7037
121.16
106.956
124.631
550.47
439.174
100.454
530.895
104.312
552.131
80.0094
148.957
220.661
104.62
388.408
406.28
202.69
1119.51
44.1159
396.838
132.022
111.885
141.967
103.215
494.202
622.749
79.4372
67.1217
189.148
198.837
396.799
149.652
151.032
113.723
323.995
113.182
70.8651
235.895
479.284
58.2366
481.67
525.835
202.405
47.816
61.628
117.67
155.664
558.889
93.2813
171.787
227.538
250.571
138.744
310.792
180.936
123.399
533.592
890.901
165.166
114.96
124.274
518.72
158.326
66.5981
194.126
348.645
392.556
152.09
223.604
458.643
197.494
139.106
107.968
408.95
105.953
148.19
208.348
109.583
287.248
401.722
154.744
74.207
560.653
329.012
86.1654
103.251
297.87
243.505
366.7
558.191
483.899
104.694
68.7702
256.592
195.145
132.164
45.4393
130.958
77.2015
304.663
82.7673
249.521
289.63
95.7678
165.154
293.399
46.6602
290.015
98.1714
110.919
208.952
1268.34
338.143
72.1855
127.183
1163.18
1293.4
226.332
280.642
381.774
371.373
117.368
335.483
568.741
622.959
84.0983
169.942
95.4233
217.356
84.1106
213.807
510.888
170.312
47.2956
500.268
1651.14
291.416
113.392
137.03
142.423
173.742
66.8971
119.571
118.877
84.3856
749.458
53.5142
99.4725
102.912
55.9648
124.762
132.721
76.8147
122.44
117.766
70.6401
375.517
231.606
139.753
104.365
113.057
168.44
196.137
401.552
129.226
101.476
88.5066
52.5137
158.822
207.623
233.035
1089.81
204.539
271.872
131.662
104.167
97.11
140.537
539.245
194.081
170.199
116.461
115.086
406.777
62.8834
186.671
51.0341
471.97
90.4828
195.354
181.239
128.277
171.084
364.058
372.668
140.739
801.783
1128.27
92.3385
98.1149
94.8065
530.856
151.073
213.658
1298.09
128.087
95.4731
55.2371
317.741
179.914
305.948
116.332
120.951
230.567
604.928
678.948
206.013
308.981
108.966
65.7705
181.927
303.815
376.64
151.184
74.4781
421.873
378.207
506.792
286.288
198.583
401.82
389.227
898.611
60.4505
186.419
436.654
132.642
100.155
50.763
221.513
392.148
406.818
179.891
318.966
169.402
205.078
442.286
985.206
289.081
304.804
206.747
59.0436
155.802
346.152
332.44
209.883
161.464
239.551
51.7783
209.877
447.047
460.891
289.517
178.821
570.273
233.749
68.4241
123.017
119.245
94.9971
84.3424
171.152
109.923
54.1033
54.4334
120.424
120.695
100.036
367.468
90.328
127.272
56.7287
174.79
51.6579
93.3968
402.015
99.061
803.578
221.442
159.369
140.979
103.774
215.922
81.2505
60.8693
329.455
87.635
194.292
415.537
315.355
360.327
1257.63
336.257
562.396
150.885
212.648
215.263
44.4918
165.168
153.336
286.743
206.656
185.8
49.6752
266.875
498.557
49.2064
46.4082
203.833
106.528
121.833
245.668
313.246
1035.71
80.253
388.941
276.663
210.882
218.737
162.6
115.647
160.18
440.284
280.3
426.423
152.943
351.237
154.227
175.247
434.998
374.053
647.725
123.736
865.974
299.154
305.796
272.267
174.856
814.521
97.3665
260.153
200.522
251.643
248.435
208.559
267.982
176.317
130.191
424.081
126.869
122.296
121.11
834.105
143.6
90.5301
484.321
330.083
172.957
186.971
236.021
102.442
95.8743
329.899
300.807
143.728
236.529
49.1709
1410.89
505.599
51.4365
288.991
245.233
130.652
115.414
109.948
341.879
48.4203
217.15
130.171
84.9672
224.397
326.445
323.364
968.753
265.705
126.338
171.369
85.7081
85.1416
497.937
208.172
108.814
121.051
174.458
70.3827
525.1
76.5967
88.6983
226.806
209.804
290.17
539.886
260.737
259.225
87.3246
75.5451
241.474
104.457
597.659
304.999
127.123
34.0129
34.2093
136.104
241.386
172.854
107.282
108.513
198.058
145.503
517.349
389.179
420.401
60.236
506.595
289.72
220.719
114.509
187.99
122.727
61.132
349.734
220.069
239.641
168.161
153.313
214.602
150.723
197.918
96.2425
52.8582
50.8412
43.5615
41.7465
43.5557
51.5981
76.6618
120.702
76.8856
281.048
558.236
49.4137
169.978
55.1867
315.219
125.344
689.811
157.885
80.2076
88.573
54.2856
162.589
92.2817
98.3632
105.605
321.764
358.93
121.88
64.9598
57.7527
660.19
102.939
515.035
138.584
386.578
111.407
337.939
375.798
110.987
126.109
496.564
215.326
77.6857
79.1258
743.798
239.795
110.747
495.015
326.082
54.3569
155.812
444.983
80.6139
84.387
48.6366
375.497
162.58
117.015
113.898
107.631
268.93
43.8381
643.507
597.335
402.235
374.7
284.302
51.0477
48.0574
64.1787
386.174
150.823
150.712
84.6559
112.52
67.0403
593.243
578.411
197.928
90.912
388.701
278.255
53.4579
164.965
205.358
176.448
101.611
39.9962
173.113
366.061
345.21
323.275
400.041
280.904
98.7128
295.911
128.236
489.393
183.065
219.338
140.038
87.9234
52.8589
122.813
137.688
170.385
98.4051
173.514
142.878
83.2722
735.507
165.417
131.823
1214.58
433.899
221.022
274.629
163.815
627.436
275.501
64.9424
166.237
631.262
250.147
183.566
257.622
340.654
188.403
487.55
218.05
262.502
343.114
95.232
280.915
105.683
92.7692
50.2938
190.081
186.634
132.419
84.0989
83.214
208.549
188.121
104.974
571.277
201.579
169.301
130.511
415.168
215.028
497.71
391.694
362.551
376.591
437.777
239.221
414.285
259.729
435.664
369.732
379.735
152.731
142.709
48.6213
39.0786
307.055
396.826
145.851
147.935
76.8407
89.9509
100.79
359.629
461.089
143.806
138.576
121.965
46.6067
358.119
344.722
510.12
71.7685
388.349
187.629
146.315
167.594
86.4223
190.371
215.768
107.724
47.293
143.038
530.136
468.403
156.958
199.88
70.9476
176.113
310.658
126.743
404.185
153.116
169.613
365.388
471.205
1328.12
196.581
1248.85
213.951
90.3963
86.7528
85.6951
497.109
148.755
342.249
94.7624
103.337
212.441
122.495
65.9793
64.824
342.804
199.787
63.0106
114.337
202.107
195.72
210.096
292.318
171.145
142.431
110.288
76.3563
669.419
294.064
59.3162
359.321
383.685
244.511
187.308
271.92
237.093
257.72
190.996
84.2429
415.151
265.886
273.194
51.766
148.172
302.346
177.396
149.777
51.6666
184.101
121.847
221.423
207.424
120.103
179.261
222.648
307.529
151.9
411.433
79.3214
290.711
236.242
53.9607
817.004
33.7714
279.494
397.875
753.975
147.003
159.609
288.587
148.46
193.704
723.324
158.628
431.572
179.175
216.085
186.194
194.606
157.586
83.1412
47.1939
388.399
176.033
419.311
64.4262
75.9274
385.012
253.168
349.684
211.356
269.01
123.749
164.421
185.169
115.508
232.707
254.001
290.821
342.352
379.693
1032.67
152.08
66.7353
119.005
151.712
358.863
110.459
343.09
163.202
105.546
68.4179
138.362
300.851
90.1394
177.822
287.075
255.305
138.013
126.274
264.59
328.265
463.929
64.1589
51.2357
165.76
209.249
154.509
36.6285
232.55
171.297
144.484
396.613
145.948
92.4269
262.599
190.08
235.977
181.761
51.3234
149.327
138.696
46.5811
107.471
380.073
612.021
130.494
102.471
127.16
36.8169
239.592
175.517
120.093
48.4888
249.489
149.657
80.5347
59.6262
69.2123
107.49
66.1743
396.207
233.751
119.652
106.397
108.219
316.207
325.727
273.439
449.134
216.583
47.9359
706.725
180.439
148.831
288.305
49.6663
362.651
213.964
204.077
943.548
255.595
195.392
252.239
207.481
202.367
167.671
78.9596
284.149
356.189
139.082
117.951
99.2018
94.028
255.733
249.232
254.526
404.775
264.212
129.822
73.8841
48.7846
78.8673
110.622
265.246
100.266
702.075
347.259
123.453
141.079
411.767
616.812
314.193
159.326
148.699
304.69
254.742
110.843
98.5611
318.138
191.24
48.1534
465.488
312.601
154.655
89.5806
207.22
158.725
65.5404
292.714
173.55
111.449
144.194
250.149
67.7119
536.339
295.256
291.811
130.557
141.324
226.531
348.818
308.181
423.012
85.8577
87.3956
98.0973
109.171
194.95
155.832
199.271
315.28
407.011
359.545
95.0456
111.18
73.1601
165.072
489.949
400.121
47.9762
319.991
46.7449
97.2695
346.225
287.071
156.928
165.756
116.997
92.6032
49.9098
112.496
114.934
236.72
237.802
168.929
195.962
621.462
483.403
737.956
42.6389
563.598
151.2
560.25
427.046
494.454
184.561
560.945
1767.16
455.534
394.069
151.208
327.674
256.85
358.842
76.9319
274.662
116.541
146.798
99.1601
230.38
96.7266
122.695
646.688
1276.02
80.4633
184.086
384.74
229.451
265.086
205.611
224.001
174.247
332.037
83.7393
77.9268
156.249
89.0314
175.54
278.698
392.604
102.114
76.0771
73.3592
233.805
165.212
127.257
186.49
229.238
47.7766
66.6388
428.793
206.249
155.862
288.726
265.728
44.0473
88.7706
372.998
442.286
741.767
85.182
49.95
102.149
139.176
136.306
259.092
49.8511
39.3481
274.912
90.4656
78.8295
164.216
320.359
109.219
99.8158
987.855
624.774
579.644
374.125
414.558
121.194
361.115
147.253
331.568
50.3256
131.994
358.786
313.733
194.928
155.272
148.898
157.505
213.052
480.937
449.588
73.0554
93.4204
383.067
334.528
378.071
274.918
141.792
43.2775
128.524
55.4796
126.011
472.225
466.033
44.0031
99.8964
983.734
114.975
545.295
508.423
55.7849
54.6898
120.453
69.642
54.9333
173.798
494.146
286.608
444.6
162.867
110.264
272.949
391.257
279.604
110.2
207.066
355.427
358.005
96.9342
144.744
351.213
49.526
49.0568
176.981
374.019
208.939
493.488
348.09
49.0389
631.014
365.893
338.441
680.729
193.027
141.747
168.865
59.4226
180.93
653.769
762.508
160.709
147.45
235.195
208.947
198.762
232.05
461.163
383.616
140.184
248.671
267.989
98.2944
96.5023
77.4615
241.676
262.927
50.0794
114.408
49.2879
163.257
168.086
93.6866
123.767
113.634
436.349
132.092
453.091
631.188
337.469
157.183
258.343
114.06
725.701
231.6
220.632
67.4868
304.872
39.4944
161.098
247.226
820.845
261.161
581.889
99.456
169.775
143.382
176.923
126.071
84.0566
107.71
126.226
41.1819
37.0895
314.916
611.164
310.485
235.734
55.7834
99.9642
186.627
165.125
91.1057
54.9955
694.071
706.771
170.63
181.106
489.039
689.673
261.086
268.392
48.891
171.491
105.734
165.762
325.645
579.518
186.512
476.979
54.3039
146.725
360.411
52.6102
49.3175
83.7797
45.6729
112.575
96.8913
254.488
414.253
215.69
167.729
311.932
353.076
337.284
162.636
199.584
471.532
196.059
58.0099
159.935
262.86
80.2257
160.869
156.713
59.8915
37.7144
303.847
107.922
119.004
1098.64
274.241
533.333
275.075
305.005
135.693
83.5824
167.262
520.851
190.948
403.227
49.936
49.3232
374.301
211.719
52.4902
93.2899
74.3603
164.298
52.8892
57.6836
168.149
299.669
131.096
287.012
164.893
47.0732
166.849
53.4764
541.037
190.55
202.866
56.918
106.046
56.4342
46.6065
160.073
71.657
143.478
151.188
227.275
48.8165
84.8372
1009.31
47.2951
72.6113
105.771
118.413
39.3194
271.135
173.906
44.8611
47.8143
137.897
290.592
342.33
530.642
140.888
151.517
105.194
105.909
131.43
151.54
464.203
202.804
488.422
150.647
103.918
87.6631
458.364
341.431
84.4266
157.073
357.212
212.434
79.8093
259.512
263.384
392.987
427.839
60.7139
215.469
167.727
87.0334
150.427
66.2589
144.192
437.507
53.8571
303.195
642.982
316.771
171.557
140.533
208.932
955.943
147.604
186.073
502.143
172.863
371.981
176.875
154.298
156.25
529.318
620.844
692.956
187.155
239.144
500.207
541.466
765.273
867.427
498.185
162.553
102.6
165.527
354.931
73.7839
228.058
170.202
153.217
137.709
204.455
208.382
422.841
169.609
142.059
198.886
164.254
454.448
47.9256
520.004
148.795
123.496
66.337
116.721
185.993
91.2393
92.9193
88.6926
101.654
566.636
589.564
55.6984
62.7608
152.836
227.507
214.475
264.521
45.5428
350.06
67.4955
650.534
367.347
567.575
225.342
211.838
36.7245
47.6505
561.207
490.705
992.692
590.214
530.535
281.189
149.568
229.779
105.817
131.022
120.226
104.515
237.909
127.858
108.899
234.193
328.265
316.364
854.041
398.792
110.096
240.902
105.011
180.649
57.7588
357.754
426.9
45.927
391.831
352.808
157.687
198.017
144.884
266.941
197.442
2215.52
1809.23
558.734
490.122
155.071
129.126
451.077
125.997
387.923
192.073
350.057
237.057
121.267
348.264
314.265
253.31
396.065
50.7659
107.283
294.863
370.044
353.951
374.077
286.093
110.519
963.652
437.795
151.394
689.524
677.042
680.813
60.5973
265.365
179.749
117.564
46.0881
167.872
343.093
508.057
130.93
94.1742
116.227
708.455
789.04
362.781
128.014
48.1937
101.155
486.773
249.647
299.924
117.279
322.348
325.677
129.379
666.411
259.389
461.913
125.14
150.277
165.881
159.145
248.348
52.8453
51.7331
168.097
134.596
922.004
85.605
122.138
51.2935
74.7161
203.397
52.2944
80.1423
109.191
41.5206
369.75
157.881
170.902
38.8901
141.684
109.884
389.223
123.97
142.314
114.767
137.354
437.08
51.7729
62.5659
124.896
155.517
154.319
53.9848
92.8383
540.088
149.714
155.439
194.719
128.536
110.46
250.428
100.329
408.963
224.438
125.441
348.872
227.178
309.802
408.797
303.966
183.153
127.86
496.275
178.722
140.819
110.272
105.602
191.477
58.5045
194.134
111.005
301.815
349.857
387.663
638.523
45.9582
109.222
136.24
292.228
139.911
294.367
156.74
83.6403
197.212
200.928
291.033
119.844
41.2782
408.17
342.897
289.428
407.651
242.499
75.0159
286.88
200.321
149.529
648.644
318.962
189.297
165.537
50.689
77.5577
193.468
34.6927
194.189
170.938
194.191
105.048
44.2061
229.915
198.958
233.547
90.3847
324.242
82.5003
291.513
154.9
102.989
246.579
472.644
408.549
178.09
297.891
46.9638
98.6816
397.33
40.2786
156.509
235.779
480.757
43.9252
27.456
189.673
406.605
180.929
44.0508
126.083
131.276
85.7264
141.445
103.322
138.194
182.47
178.676
140.588
379.8
171.573
189.726
186.686
78.5866
225.029
337.337
67.9051
315.678
275.217
1268.28
1019.04
45.3033
112.085
184.253
120.631
136.601
315.743
344.371
130.985
472.899
454.5
264.071
41.5996
500.146
492.572
178.155
283.211
236.79
168.815
152.642
330.585
102.365
302.666
275.03
249.689
72.4292
395.363
170.743
134.322
128.914
300.133
183.695
95.6644
393.007
188.862
345.86
188.797
47.33
342.814
195.127
394.241
385.341
146.857
147.852
48.6727
156.979
183.357
286.018
155.719
293.496
166.8
92.0189
150.363
309.625
289.115
287.89
157.154
146.083
232.678
45.409
116.501
329.313
45.055
269.627
273.166
81.0688
47.6444
310.711
457.652
392.668
149.355
111.992
117.822
102.575
107.934
167.915
455.885
207.441
54.2405
185.046
233.813
53.1253
202.562
44.7477
421.494
726.37
480.946
246.413
49.8127
68.0479
214.299
164.644
91.3601
166.28
138.445
234.888
200.271
65.6907
77.5132
80.8414
280.16
41.3569
64.0255
192.289
148.902
610.611
47.407
554.706
497.891
130.36
915.549
44.746
151.86
139.06
526.62
219.372
142.026
353.485
91.7464
255.039
85.4734
387.478
95.9545
198.869
118.507
125.547
296.178
284.036
461.162
243.3
136.837
337.553
737.999
192.963
501.65
70.6125
150.887
249.992
355.841
54.344
307.405
159.791
131.788
41.6732
510.899
137.316
323.288
218.808
286.053
48.8946
91.1566
50.8667
441.969
65.9232
43.8819
44.1889
88.8246
53.3948
143.108
329.596
450.784
53.4792
252.811
270.25
240.02
93.8254
191.444
53.0726
93.3111
145.943
272.314
222.435
391.533
68.3764
162.309
505.114
219.638
280.685
117.932
212.456
244.254
324.458
165.475
195.17
528.801
549.737
216.79
144.398
225.258
1146.78
414.743
49.3106
158.122
187.731
186.677
182.965
43.6357
54.6544
464.105
65.0309
50.9205
58.2603
118.604
99.8352
128.585
433.849
187.264
351.723
231.24
284.475
360.397
344.544
401.434
265.818
112.691
133.498
179.405
189.574
128.362
689.256
385.653
151.746
53.1861
54.0557
244.712
278.794
89.2874
164.489
217.057
254.497
170.887
151.064
286.6
147.038
56.557
61.4492
370.811
113.884
160.994
143.617
118.451
313.631
424.341
49.351
52.3033
219.839
73.1443
110.1
87.5757
148.264
316.599
161.693
150.072
316.516
357.378
312.733
228.412
233.856
169.255
153.632
464.231
497.843
318.956
118.344
109.41
164.779
588.15
567.315
128.785
802.126
197.97
76.1001
215.792
248.818
241.638
183.239
176.88
124.551
114.421
55.1026
52.0145
120.485
78.6508
110.377
211.419
123.261
262.025
190.577
150.054
189.902
162.194
282.062
720.156
99.6454
81.4689
96.0994
112.921
47.9875
85.9187
106.17
115.351
93.2698
148.046
55.1829
207.89
230.941
92.0279
100.065
356.633
108.732
184.288
163.812
52.1583
94.2611
300.229
441.426
444.421
105.014
295.286
48.4277
62.1894
60.2411
121.381
64.1783
383.574
194.962
48.0655
77.2422
128.272
119.904
389.243
245.498
258.586
116.111
126.902
247.038
235.696
330.87
117.959
527.724
731.696
245.489
169.09
223.917
410.815
275.747
50.1918
50.6827
373.001
47.4579
44.1215
49.8972
243.51
172.804
177.044
84.2128
638.517
70.8837
98.962
87.7093
351.341
377.901
129.109
265.063
349.633
808.314
149.991
107.14
178.729
210.175
146.715
294.864
451.448
550.055
665.138
44.4634
98.933
170.198
222.728
134.386
59.2971
321.196
457.62
45.2208
925.496
317.661
446.13
69.9211
124.592
98.6743
43.7392
43.4609
401.247
447.606
238.306
128.274
86.3749
89.6124
95.5029
292.641
103.624
127.179
323.514
221.525
51.9728
209.742
215.586
192.367
204.993
430.752
414.328
228.925
82.3495
404.912
130.223
139.915
274.532
156.74
165.549
358.937
59.863
52.2234
57.4162
83.2823
102.424
229.563
323.332
146.628
307.122
164.984
351.589
315.239
155.228
230.356
269.93
213.734
179.359
136.321
257.53
73.1573
94.6098
230.593
419.427
194.097
490.782
96.2219
512.24
704.523
229.194
60.6051
299.552
97.089
155.612
421.619
364.566
358.673
216.333
305.777
97.471
53.867
112.944
180.12
182.228
108.158
240.009
382.84
862.096
783.828
439.511
126.436
348.318
748.543
141.442
137.784
114.203
95.7464
664.127
102.875
233.14
493.04
147.202
319.035
478.178
270.426
261.41
157.684
171.587
164.543
222.245
122.725
333.002
369.971
128.367
145.651
47.264
65.4313
231.419
450.85
49.6045
275.05
93.997
410.539
122.344
118.701
327.627
234.806
202.926
164.773
203.212
123.686
119.585
270.228
205.754
214.593
181.478
139.245
62.2168
129.799
162.1
720.353
737.441
479.569
140.167
50.0999
185.256
257.431
192.151
125.708
58.1814
64.1728
416.91
209.272
225.878
241.317
531.267
504.289
364.758
153.226
215.744
204.424
471.314
342.277
450.066
189.45
308.397
266.252
725.685
766.43
351.315
158.789
158.983
137.843
218.12
87.3779
118.9
107.105
287.867
294.257
75.2355
185.295
256.823
406.149
292.078
97.9647
169.782
131.823
255.923
513.508
56.0708
53.7383
325.249
309.161
91.9591
323.973
90.7558
55.4305
492.229
457.499
79.047
109.083
151.728
207.078
513.917
581.088
67.3292
391.753
320.292
168.206
130.472
118.347
533.535
131.19
126.699
114.782
176.95
108.404
199.797
153.034
262.527
45.0681
45.2204
120.808
108.142
417.447
157.662
163.329
157.701
162.005
61.7402
113.372
124.559
54.2292
300.094
42.2283
57.0829
44.419
47.1288
231.547
189.175
56.8118
237.197
295.869
312.102
655.568
69.7699
252.283
413.772
254.858
131.328
126.347
167.701
963.426
398.787
125.229
150.452
39.7683
684.059
73.2471
130.288
74.924
45.5304
194.417
59.5771
1042.25
206.446
118.276
316.207
259.941
366.045
509.977
191.062
320.363
342.379
606.146
426.686
183.833
43.3513
155.255
118.781
116.46
77.4908
367.838
158.327
308.181
214.828
102.213
82.3211
409.996
135.901
159.575
80.497
89.3693
54.8349
208.511
124.152
190.589
158.004
389.312
44.9992
144.73
116.588
60.8766
172.235
176.661
160.566
144.057
166.051
46.3316
105.497
50.4386
153.356
264.798
91.2959
108.299
265.598
240.457
287.938
173.954
120.477
120.125
89.3805
215.116
587.87
387.097
246.742
141.398
256.138
120.012
174.247
189.202
528.369
212.367
120.319
65.3746
359.729
317.987
49.0237
236.814
268.518
413.689
631.772
523.956
234.859
503.886
211.28
180.545
116.739
52.5714
43.6309
213.7
199.044
48.1304
128.608
66.5307
43.6968
65.0765
189.134
49.597
49.9797
186.656
144.129
48.6085
132.554
225.268
125.346
40.7244
208.32
520.719
1086.78
503.763
659.249
429.564
56.2573
139.24
45.049
46.4473
221.803
174.558
558.645
520.793
49.0657
188.135
422.124
98.5203
205.662
158.187
138.029
57.8607
170.891
115.216
107.687
1040.89
130.309
279.379
271.501
291.718
48.1191
272.723
59.1338
214.699
117.124
184.138
236.439
137.969
81.9272
74.3806
202.819
1005.3
314.725
277.385
589.504
43.9275
49.7051
153.452
128.298
379.933
97.01
199.987
145.605
121.585
126.888
129.96
364.484
688.669
150.086
886.032
99.1614
124.975
276.969
674.911
167.36
291.479
82.9105
140.935
204.349
224.15
451.009
510.497
157.784
132.721
106.037
474.283
413.904
455.814
233.815
202.702
530.231
502.867
251.066
417.552
36.9507
196.817
217.99
256.531
153.031
341.871
445.191
175.085
253.913
308.325
317.662
125.45
138.041
471.204
925.455
94.3742
115.631
325.783
242.85
803.052
131.966
654.813
97.1293
298.418
655.482
313.023
223.543
391.011
1130.51
211.67
219.843
173.869
224.152
264.035
185.424
96.4931
141.684
272.698
409.036
112.724
372.454
77.6332
113.912
129.308
541.55
106.521
338.037
113.02
77.8091
186.207
88.7235
107.83
154.007
631.477
165.552
544.875
335.499
211.461
306.643
188.097
671.056
663.522
205.541
258.935
176.316
148.43
169.76
261.38
159.344
141.452
209.168
94.3772
92.1974
131.953
123.408
175.353
97.2644
160.157
99.2251
384.433
159.804
279.26
120.65
81.2955
969.064
131.356
181.247
65.3817
58.9234
56.7396
104.721
93.4812
53.4202
494.348
97.4706
164.175
226.675
168.535
103.934
119.321
469.767
246.807
179.784
95.8044
108.392
117.275
300.296
163.314
380.324
155.133
297.156
117.983
152.647
182.131
219.904
106.124
95.784
309.462
332.199
371.932
255.939
132.021
50.7172
251.207
153.545
357.425
411.304
182.183
101.499
135.465
54.2677
45.3555
45.2449
233.767
160.326
44.6537
103.036
42.4602
267.405
465.312
666.482
326.707
444.012
523.363
700.792
91.1668
538.168
136.528
75.7263
185.146
184.182
41.0279
383.983
64.8439
205.186
77.5038
204.833
227.191
145.034
185.884
51.3176
57.8123
126.917
73.7598
342.094
250.824
261.08
331.892
202.034
302.916
441.648
123.233
884.327
91.656
92.1102
289.485
338.81
162.434
1091.4
413.201
48.9232
53.6081
254.21
471.1
52.9894
134.373
89.3089
645.043
143.699
124.7
107.786
50.0623
96.2721
886.906
123.963
203.034
156.098
327.592
138.737
350.313
185.171
196.219
135.879
183.432
223.337
105.676
231.362
133.091
296.157
150.716
81.7888
482.385
72.265
132.516
464.5
335.297
51.0776
45.6649
46.1649
929.485
123.775
172.485
601.409
602.35
373.471
131.404
161.323
394.429
213.588
139.484
145.659
553.2
498.231
95.0429
123.325
120.254
107.31
98.7801
127.315
308.047
273.118
140.732
701.093
658.731
618.475
566.842
633.745
659.667
603.447
376.876
87.7017
55.115
197.157
95.7832
99.4988
178.799
52.2937
226.062
46.7087
150.777
166.795
73.3582
465.981
117.817
359.212
94.4085
552.746
405.221
303.337
99.0903
360.325
133.434
116.13
131.053
68.2774
69.5328
311.48
394.721
80.7434
531.793
393.826
55.5729
235.901
69.2727
626.986
695.924
52.0355
62.3491
361.002
132.809
552.461
442.989
70.124
39.4304
390.737
112.994
65.5737
364.622
241.946
51.2874
333.522
773.844
278.284
139.518
149.88
44.6378
88.6305
49.15
561.618
84.9341
218.902
120.165
127.774
84.466
485.234
348.739
379.61
367.154
109.439
86.094
145.413
212.499
312.113
794.904
1157.34
154.661
354.901
68.0007
132.739
221.183
214.222
141.942
200.062
152.519
347.915
359.843
161.682
371.993
149.218
420.888
427.606
137.215
208.103
176.47
82.2645
268.644
211.587
231.172
272.644
405.974
246.077
317.733
192.507
38.1619
105.123
109.506
533.288
316.843
418.939
75.5
374.714
505.183
137.055
295.16
397.074
728.164
247.48
953.506
248.478
55.0995
77.0245
93.163
95.4679
129.383
407.763
506.342
352.515
145.847
295.377
51.0079
44.8083
67.242
253.405
724.001
51.5349
576.435
539.155
1155.93
623.895
356.129
359.055
51.187
600.697
635.642
86.7623
310.588
158.861
172.308
182.808
98.7004
134.938
84.0027
829.566
692.16
137.473
222.578
150.391
46.0123
106.11
45.8691
434.188
81.8344
176.77
120.704
123.465
305.574
191.507
735.171
76.8788
411.424
113.838
517.303
233.519
558.519
110.282
315.188
149.967
108.868
102.002
279.804
561.28
300.548
52.695
51.9061
179.163
428.833
132.548
307.657
412.411
53.4298
55.1716
317.515
458.176
350.644
37.962
174.472
65.6135
273.32
70.8255
267.913
254.606
274.231
366.137
62.6178
54.2472
193.247
146.127
201.928
84.8193
77.0861
259.876
46.2138
568.351
211.757
345.243
88.5015
195.787
173.997
138.045
883.466
53.3778
147.062
86.1611
239.454
308.607
105.637
984.589
201.268
120.062
297.44
157.039
590.433
547.389
157.45
621.611
512.798
50.3573
262.988
71.7741
461.373
296.792
114.068
46.5529
186.422
406.184
338.171
48.137
99.465
784.184
536.713
486.346
63.4548
158.813
644.703
49.4419
169.989
101.438
120.452
125.158
126.981
459.904
329.241
580.234
58.2468
151.383
299.565
77.0434
173.462
112.181
183.84
103.121
128.529
260.1
243.284
46.2465
154.527
660.944
288.079
341.562
226.265
164.845
239.659
154.044
394.906
194.691
244.082
148.238
63.1215
56.6758
719.788
901.306
150.126
371.619
35.3089
423.973
122.888
138.278
92.7669
116.982
69.5344
435.353
56.2871
266.663
143.411
62.865
47.9543
180.274
167.934
87.0108
524.891
366.249
582.446
92.6914
231.432
195.405
596.305
301.875
179.62
145.583
48.5433
367.435
134.513
160.186
125.645
63.2932
599.171
289.805
235.867
140.169
498.709
287.31
406.4
145.303
526.414
71.6896
212.725
128.343
57.6702
422.779
361.328
870.061
367.196
159.498
315.639
456.239
636.732
416.653
132.841
98.7342
97.1976
481.524
158.402
123.743
321.46
608.081
113.252
112.063
317.019
94.767
371.261
196.576
198.08
324.291
340.064
131.621
38.11
43.4246
43.6127
124.949
443.205
693.036
410.296
118.737
380.326
36.0584
257.18
46.5514
145.788
139.956
363.957
47.6841
446.804
187.88
106.755
563.973
103.704
97.817
106.556
243.701
166.398
289.77
139.544
132.127
57.5836
55.4741
166.597
58.6566
146.446
316.767
329.486
78.5704
76.748
104.445
53.4405
138.764
177.137
198.363
214.731
144.781
48.211
63.507
660.967
72.4185
100.306
802.685
192.766
203.316
688.572
119.4
147.36
137.74
42.8761
52.1944
199.778
105.461
48.2248
193.621
226.345
146.856
900.214
142.982
108.286
299.113
52.4496
50.7584
133.091
353.172
553.2
206.453
243.524
306.918
1851.66
1336.86
216.212
390.942
99.0328
117.464
171.435
535.958
60.194
190.776
83.8203
1229.28
112.587
57.8349
161.595
149.932
304.831
44.7448
329.381
222.294
483.639
511.725
579.503
665.688
271.814
234.431
135.614
352.87
457.643
592.439
156.189
889.516
137.944
350.434
512.937
214.833
202.823
38.9089
115.139
179.782
673.824
218.836
156.085
410.567
199.385
71.4699
181.836
776.643
347.094
40.9423
612.725
367.159
123.353
99.02
430.454
570.798
127.509
355.897
324.059
604.294
47.0463
245.772
52.8756
47.4053
43.8419
535.942
45.8423
169.52
291.091
57.2235
204.452
84.6506
209.504
178.269
230.984
399.913
393.717
424.351
223.887
183.431
249.423
102.845
146.715
201.504
380.566
186.398
646.411
160.709
306.687
317.153
167.909
62.0009
120.442
104.917
172.095
64.0969
73.0822
136.013
157.861
141.056
512.247
119.722
60.6818
182.026
200.269
273.265
175.897
124.649
48.1054
270.763
321.392
58.0635
64.7579
299.487
72.41
52.3786
51.2928
153.192
371.539
50.8825
1223.33
137.668
267.086
400.832
440.101
110.355
310.993
302.297
196.724
519.459
425.968
56.8782
54.6416
62.2726
435.272
119.524
59.5845
166.846
85.5153
802.935
265.456
611.174
355.319
151.957
210.673
242.486
273.385
314.957
399.772
172.902
150.395
163.957
50.8982
472.247
173.891
188.901
52.5135
49.3341
52.9786
52.5683
322.55
474.778
151.258
474.229
260.223
812.652
126.796
398.289
141.518
230.176
314.203
238.497
203.128
488.306
314.503
218.984
338.401
371.426
153.273
159.304
157.173
389.021
88.1995
44.5099
92.7044
46.4457
301.338
349.754
150.827
61.7276
244.345
144.058
107.525
301.732
624.54
190.407
132.092
43.0975
431.448
513.474
106.293
52.9346
62.6304
162.639
312.221
76.7503
324.384
192.413
340.695
500.247
373.44
48.5187
52.5361
114.855
242.502
535.427
717.14
180.048
122.288
215.234
550.77
141.55
121.432
122.119
43.7229
42.0908
53.9418
50.5142
186.79
52.0455
52.7252
127.388
158.552
278.933
148.148
234.269
234.895
440.154
168.462
169.788
228.427
194.289
72.3688
59.302
364.241
297.483
78.5848
231.617
1198
350.608
208.752
67.5188
218.208
475.944
103.323
40.2357
45.3349
691.998
113.889
114.43
280.394
715.508
616.668
143.263
174.935
65.1436
125.696
59.3107
228.902
214.259
99.5895
138.307
159.891
142.735
93.6599
199.957
152.726
165.828
110.968
166.736
123.153
119.876
118.773
74.6172
154.272
175.206
288.703
81.5057
104.694
81.602
1336.01
1355.82
136.064
350.554
339.383
282.888
49.9889
1262.26
57.0086
110.749
178.562
167.363
332.014
94.3319
171.366
473.369
505.913