/*--------------------------------*- C++ -*----------------------------------*\
| =========                 |                                                 |
| \\      /  F ield         | OpenFOAM: The Open Source CFD Toolbox           |
|  \\    /   O peration     | Version:  2212                                  |
|   \\  /    A nd           | Website:  www.openfoam.com                      |
|    \\/     M anipulation  |                                                 |
\*---------------------------------------------------------------------------*/
FoamFile
{
    version     2.0;
    format      ascii;
    arch        "LSB;label=32;scalar=64";
    class       volScalarField;
    location    "10";
    object      k;
}
// * * * * * * * * * * * * * * * * * * * * * * * * * * * * * * * * * * * * * //

dimensions      [0 2 -2 0 0 0 0];

internalField   nonuniform List<scalar> 
305690
(
2.16608
0.834069
0.834883
1.6641
0.942032
1.73648
1.15787
1.29072
1.66414
0.982333
1.58159
1.93914
1.21998
1.74925
1.31322
1.35135
2.58853
0.712508
1.31886
1.57316
0.703997
1.1549
1.11567
0.801743
0.906705
1.33153
1.32939
0.909968
1.01203
1.17581
0.988642
1.78794
0.805909
0.991675
1.10742
1.13612
1.03034
0.965042
1.1005
1.43103
0.789597
1.07677
1.76198
1.54678
1.02372
1.03499
0.883286
1.57805
1.9338
1.2155
1.62058
1.03301
0.686462
1.16714
2.42709
2.66284
0.900126
0.883841
1.92989
2.2761
2.73798
0.724247
2.9823
1.38719
2.22813
2.26169
2.70313
1.59993
2.76447
1.05773
2.48634
2.21259
2.2304
2.52805
2.65827
1.15873
1.40114
2.49759
1.02682
0.652741
1.19169
1.25592
1.45611
0.655864
2.10894
0.86724
1.78441
0.682743
0.703907
1.88975
1.03937
1.74211
1.94328
1.34989
1.34084
1.46581
1.16157
1.1085
0.823868
0.954205
1.22552
0.837565
1.60073
1.3416
3.30184
1.5576
2.29249
2.45053
0.886424
1.02762
1.17329
3.05424
1.35573
1.06525
1.03949
0.84583
2.67488
1.32272
1.39842
1.36266
1.46712
1.42278
0.787492
0.69779
1.50127
1.27265
2.06548
1.27517
1.39223
1.94441
0.658703
0.727029
2.79821
0.713381
2.93516
0.736639
1.4532
2.53341
1.23218
1.12374
1.75481
1.34275
1.23214
1.7048
1.80889
1.04447
1.42791
1.577
1.50793
1.05344
1.13663
2.64535
0.881847
2.87095
1.56684
2.1912
1.0531
0.691545
1.07835
1.43664
1.25947
1.33434
2.49721
3.85015
1.82793
2.11399
1.50666
1.86326
0.708699
1.28961
1.44616
1.20045
1.07953
1.06576
1.041
1.31708
1.4607
1.61149
1.10986
1.8834
1.5626
0.879418
0.741111
0.667389
1.0752
1.46614
1.96559
1.01062
1.27861
1.81057
1.84831
1.0431
0.798692
2.15601
2.49398
2.45491
2.92269
2.2404
0.847644
0.897241
1.24381
1.78413
1.19579
1.20836
0.81342
0.983103
2.4206
2.74507
2.66599
2.57781
1.15269
2.13668
1.53927
1.49801
1.1723
1.7877
1.34271
0.964981
2.08618
1.18197
1.19832
1.17532
1.43041
1.43775
2.30058
2.49106
1.17201
1.12112
0.793004
0.99014
0.967627
1.73424
1.63354
3.20868
3.13393
2.82573
2.6712
1.71439
1.11375
1.54562
2.4399
0.846249
0.956562
1.04836
3.09902
0.868688
1.35725
0.738807
0.666489
0.803436
1.53153
1.31602
1.04019
1.0642
1.01391
1.11
2.28003
2.35034
1.0844
2.20689
0.943272
2.74311
0.972888
1.33807
1.52381
0.903127
1.99211
2.27476
1.40741
3.08802
0.64041
2.33203
1.4495
1.26045
1.21055
1.21945
2.61837
3.0099
0.919014
0.902162
1.30775
1.43498
2.30093
1.3636
1.33254
1.12203
1.93385
1.00663
0.878954
1.43977
2.32676
0.86101
2.5892
2.70364
1.31769
0.691497
0.787455
1.00182
1.35422
2.91217
0.89387
1.26124
1.73499
1.76484
1.11345
1.78572
1.49132
1.05436
2.41028
3.09806
1.24619
1.09696
0.996382
2.6514
1.30372
0.900056
1.31834
2.2494
2.64498
1.18943
1.32907
2.34499
1.44406
1.15888
0.965358
2.2401
1.19309
1.2105
1.43023
1.1264
1.69359
2.40574
1.24424
0.919651
2.88767
2.12606
1.05532
0.913325
1.95534
1.61327
2.31712
2.82013
2.29673
1.14633
0.870086
1.79909
1.54197
1.08275
0.683021
1.17494
0.955251
1.85193
0.856773
1.7481
1.84376
0.930276
1.16879
1.77929
0.704966
1.78036
0.931359
0.969549
1.32649
4.70721
1.93128
0.827217
1.0897
4.2196
4.69817
1.67205
1.86457
2.1213
2.04672
1.03676
2.01827
2.51941
2.62459
0.918557
1.27131
1.10241
1.43402
0.871648
1.41766
2.64376
1.26142
0.674196
2.20658
5.62093
1.74938
0.973023
1.11849
1.2389
1.33094
0.728399
1.03111
1.02528
0.901057
3.32872
0.78251
0.945224
0.952886
0.798197
1.06817
1.07791
0.915791
1.0645
1.37258
0.723383
2.35385
1.45671
1.15607
1.06877
1.13195
1.26569
1.38026
2.20644
1.03144
1.19913
1.08849
0.876539
1.19298
1.35445
1.70668
3.19877
1.61238
1.65326
1.10047
1.13471
1.08718
1.12533
2.50815
1.34452
1.40722
1.0863
1.04753
2.53765
0.866729
1.48732
0.73286
2.57035
0.913141
1.39378
1.3985
1.10684
1.329
2.09653
2.1476
1.25186
2.81578
3.09838
0.865432
0.919328
0.982211
2.41624
1.22238
1.49634
4.23852
1.1265
0.947111
0.727848
2.08233
1.44818
1.91034
1.15874
1.07935
1.74434
2.6896
3.0535
1.60813
1.67202
1.20727
0.872404
1.45775
1.90287
2.29642
1.18361
0.973154
2.35055
2.29733
2.31667
1.75422
1.54267
2.17106
2.01551
3.55369
0.778694
1.39656
2.41595
1.13996
1.09951
0.634877
1.63505
2.2276
2.29524
1.32098
1.77602
1.25102
1.49004
2.84693
3.79843
2.13443
1.97883
1.50117
0.823919
1.43778
2.02526
1.92908
1.5315
1.39522
1.68204
0.712515
1.44349
2.53007
2.59641
1.69467
1.43403
2.54946
1.56675
0.852897
1.06206
1.05584
1.04045
0.809561
1.30513
0.900638
0.823627
0.801585
1.05959
1.07354
0.9821
2.49801
0.894672
1.00252
0.810291
1.24751
0.702907
0.992262
2.00216
0.93806
2.89785
1.51923
1.25868
1.28876
1.00319
1.53874
0.984535
0.793999
2.09587
1.07597
1.38947
1.99592
2.05571
2.19157
4.28334
1.75854
2.87509
1.23823
1.54226
1.40903
0.657414
1.3076
1.28405
1.74376
1.6544
1.30178
0.729375
1.55686
2.35656
0.721473
0.703526
1.38219
1.00414
1.03444
1.549
1.91347
3.51546
0.936835
2.1785
1.52429
1.55864
1.56024
1.21814
1.02583
1.28758
2.83329
2.02445
2.27044
1.33928
2.19833
1.37454
1.49807
2.01823
1.9224
2.67161
1.01811
3.11355
1.94204
1.99159
1.63157
1.42495
2.63166
1.04134
1.83396
1.44126
1.76976
1.73899
1.52155
1.77613
1.53772
1.11698
2.27938
1.34725
1.05473
0.97759
3.38442
1.43476
0.876412
2.63706
2.15744
1.21221
1.24305
1.80104
0.980003
0.983764
1.89687
1.80635
1.19784
1.79761
0.680248
4.40619
2.63583
0.705844
1.93925
1.61976
1.10465
1.08327
1.04061
1.89952
0.688784
1.65265
1.04439
0.976638
1.62845
1.96449
1.89501
3.3284
1.57323
1.27824
1.26024
0.844701
1.00251
2.47296
1.75964
0.949485
1.00223
1.48645
0.784711
2.50177
0.921033
0.858065
1.61992
1.562
1.79336
2.34554
1.71553
1.75996
1.04211
0.959878
1.60704
1.19358
2.62472
1.87051
1.18725
0.585784
0.586463
1.07775
1.64626
1.32687
0.973958
0.974254
1.66637
1.3939
2.75903
2.14756
2.59088
0.834331
2.33705
1.79452
1.38416
0.981383
1.39247
1.0715
0.799134
1.96825
1.66477
1.58219
1.24231
1.22075
1.45976
1.34265
1.349
1.12422
0.754785
0.750011
0.651034
0.657553
0.652467
0.759482
0.927026
1.05512
0.805246
1.92336
2.59165
0.727252
1.29648
0.777953
1.62688
1.09
3.14537
1.59449
0.99229
0.989386
0.803985
1.27901
1.0206
0.993222
1.03981
1.79736
1.95103
1.32711
0.885577
0.784735
3.16283
1.1742
2.46141
1.5073
2.24187
1.23156
2.14929
2.27285
1.02804
1.06237
2.29096
1.80041
0.972621
1.02355
3.32169
1.69372
1.00772
2.45415
2.18615
0.771546
1.17874
2.15076
0.780912
0.959522
0.716707
2.3778
1.21427
1.17379
1.00208
0.965436
1.99265
0.691501
3.07188
2.96112
2.3628
2.30297
1.84316
0.71405
0.717589
0.794139
1.92892
1.23202
1.24302
0.778438
1.02135
0.871478
2.93326
2.86247
1.53856
0.84376
2.1612
1.81027
0.761931
1.15714
1.26024
1.36675
0.934339
0.638337
1.58094
2.30686
2.05705
1.94163
2.22719
1.55121
1.10516
1.94113
1.10999
2.36419
1.41787
1.72766
1.11262
0.922771
0.775604
1.0648
1.18138
1.28521
1.05548
1.38654
1.08384
0.841912
2.86757
1.37386
1.23735
3.40218
2.30489
1.77528
1.5738
1.5634
3.00213
1.96797
0.854719
1.30105
3.07061
1.5807
1.32202
1.61905
1.85491
1.43773
2.37098
1.55406
1.57972
1.95346
0.965821
1.56837
0.979465
0.930085
0.722246
1.40482
1.32403
1.31727
1.03139
1.03437
1.48059
1.43741
1.03233
3.09003
1.68798
1.36305
1.27446
2.29756
1.6499
2.21167
2.28801
2.11556
2.15869
2.32303
1.54183
2.5984
1.6781
2.45959
1.85
2.10518
1.12337
1.16863
0.727522
0.627791
2.06858
2.17504
1.15898
1.27721
0.836009
0.893163
1.07642
1.88001
2.25994
1.21483
1.18257
1.07794
0.692164
2.18874
2.15337
2.81131
0.86597
1.89671
1.37717
1.1226
1.25825
0.881321
1.43282
1.539
1.13467
0.715923
1.30655
2.71668
2.3459
1.12522
1.43374
0.814552
1.32272
1.82946
1.04272
2.09215
1.15029
1.20228
2.23422
2.67816
3.23694
1.37158
3.25456
1.51679
0.925526
0.993052
0.977194
2.49163
1.17345
1.70653
0.936971
1.08415
1.33349
1.2311
0.861032
0.837986
1.87396
1.44147
0.864929
0.978515
1.77177
1.26577
1.37413
1.62453
1.42292
1.28547
1.04069
0.884524
3.02745
2.02065
0.828638
2.2854
2.18175
1.76388
1.5168
1.5012
1.73663
1.76412
1.39802
0.872378
2.08766
1.63998
1.80442
0.713559
1.18719
1.93922
1.23936
1.28431
0.736752
1.24702
1.19751
1.41212
1.52659
1.15115
1.36029
1.31196
1.93873
1.3292
2.45048
0.817191
1.59468
1.75314
0.853948
3.17798
0.624076
1.73742
2.17908
3.2221
1.17093
1.26312
1.68987
1.20448
1.50412
2.85005
1.28105
2.25103
1.42292
1.60103
1.46175
1.5209
1.3435
0.968259
0.716449
2.41229
1.34527
2.26163
0.85261
0.774993
2.25662
1.85496
1.90671
1.60381
1.64903
1.34264
1.32814
1.45059
1.04563
1.59375
1.70578
1.84137
2.08059
2.16373
3.39425
1.19854
0.877586
1.06869
1.34748
2.30958
1.17043
1.73989
1.43015
0.959717
0.873678
1.06568
1.83579
0.836239
1.19909
1.92778
1.84512
1.14054
0.984403
1.4922
2.17889
2.22079
0.826149
0.638799
1.18446
1.3128
1.22249
0.600428
1.77795
1.32397
1.20833
2.33541
1.38362
1.0558
1.66143
1.4186
1.52679
1.30333
0.747076
1.25935
1.18844
0.661957
0.976659
2.21819
2.6141
1.12865
0.929924
1.10944
0.61268
1.72512
1.56016
1.04894
0.729171
1.80426
1.02747
0.778606
0.786848
0.867634
0.957926
0.899291
1.85733
1.703
1.01959
1.01249
1.01114
2.109
2.24887
1.83987
2.24109
1.43849
0.717273
3.1478
1.28519
1.12292
1.71794
0.702734
2.21694
1.59448
1.70835
3.47799
1.72116
1.4712
1.68271
1.48599
1.4424
1.35668
1.07156
1.77746
1.8995
1.14125
1.34329
0.941101
0.902629
1.48591
1.62003
1.66507
2.17829
1.61515
1.23018
0.94329
0.697236
0.939736
1.07251
1.70649
1.14177
3.02144
2.01065
1.06413
1.34413
2.44266
2.67065
2.10547
1.16325
1.08991
1.7101
1.63009
1.14256
1.08886
1.77462
1.29764
0.735736
2.54648
2.07657
1.21638
0.871927
1.37355
1.28222
0.868077
1.8121
1.46838
0.967698
1.16792
1.51357
0.835013
2.65962
1.91851
1.6782
1.21194
1.27968
1.59374
1.93942
2.22221
2.07464
0.909698
0.869129
1.18729
1.26715
1.56219
1.16583
1.49572
2.09943
2.26517
2.05868
0.915246
0.970508
0.76193
1.22219
2.59041
2.02387
0.687668
1.79799
0.696948
0.939904
1.86598
1.62313
1.23359
1.27916
1.02502
0.888709
0.703062
0.95384
1.06032
1.60995
1.57859
1.33688
1.28819
3.10175
2.43986
2.95234
0.669996
2.50782
1.70843
2.8149
2.03316
2.36935
1.44723
2.8322
3.80286
2.34041
2.09101
1.2221
2.04253
1.78944
1.81123
0.971509
1.91402
0.983765
1.31991
1.09224
1.68928
1.06195
1.01971
2.44959
3.51812
0.927477
1.43585
2.48928
1.67782
1.63195
1.42468
1.41861
1.48953
2.16031
0.962612
0.949245
1.24252
0.915334
1.28438
1.71192
2.07093
0.976796
0.824044
0.974224
1.77216
1.24995
1.38776
1.48709
1.6193
0.738442
0.900789
2.65225
1.47643
1.25426
1.9309
1.90641
0.657101
1.03815
1.91429
2.47008
3.36727
0.869721
0.700233
1.12371
1.17975
1.15681
1.81636
0.729197
0.678507
1.9459
0.891558
0.909034
1.29379
1.79928
0.942188
0.913902
3.67876
2.97958
2.94877
2.07488
2.33083
1.2371
1.98658
1.15608
2.18127
0.708845
1.38038
2.07974
2.10451
1.56167
1.16795
1.18194
1.24346
1.40626
2.56549
2.46488
0.895451
0.973761
2.13998
2.1079
2.41219
1.52982
1.01483
0.687179
1.0378
0.808826
1.34547
2.34334
2.37931
0.644131
0.934163
3.53952
1.23845
2.7797
2.10705
0.756658
0.746444
1.07913
0.910294
0.771906
1.62003
2.34068
1.88463
2.47889
1.33625
1.08996
1.89224
2.34654
1.98645
1.04287
1.56046
2.28372
2.00923
0.90398
1.19469
2.27372
0.709238
0.705442
1.33612
1.82474
1.5353
2.71532
1.95799
0.695473
2.98377
2.1626
1.99935
2.88506
1.26857
1.11075
1.23356
0.853286
1.24371
2.631
2.96202
1.16298
1.14695
1.84196
1.39575
1.55528
1.68778
2.41381
2.37093
1.07312
1.57426
1.81883
1.18458
1.15557
0.905984
1.70613
1.8212
0.747139
1.00082
0.716834
1.27428
1.32304
1.04596
1.09903
1.02862
2.22939
1.25011
2.52235
2.73493
2.15542
1.19082
1.7657
1.07959
2.99083
1.52813
1.49325
0.722064
1.69287
0.634848
1.21844
1.75984
3.20141
1.54977
2.58085
1.08369
1.55596
1.28671
1.4418
1.10981
0.970259
1.03584
1.33466
0.678957
0.624085
2.07728
2.80279
1.84935
1.67764
0.78255
0.915074
1.41569
1.30922
0.934013
0.802341
3.10366
3.11981
1.29136
1.4801
2.54953
2.93011
1.68487
1.63876
0.698592
1.20946
1.13624
1.21181
2.17172
2.90589
1.53033
2.41006
0.786848
1.29908
2.1931
0.732131
0.6779
1.02726
0.675397
1.07519
0.991153
1.56229
2.14942
1.52338
1.48968
1.89771
1.97643
1.80588
1.21924
1.37425
2.94622
1.42951
0.83641
1.16816
1.74314
0.936959
1.26739
1.26152
0.827054
0.616252
1.76102
0.936383
0.971018
4.12925
1.64821
2.34557
1.82941
1.95422
1.27826
0.901578
1.27695
2.84783
1.47549
2.23342
0.7619
0.695389
2.23449
1.58638
0.691427
0.887565
0.9259
1.18787
0.769157
0.822503
1.24706
1.77704
1.40642
1.8998
1.25738
0.670973
1.35679
0.776483
2.63495
1.47227
1.27452
0.739215
1.12941
0.870941
0.668463
1.21211
0.835538
1.19913
1.194
1.79638
0.711803
1.02235
3.75067
0.679676
1.00509
0.993967
1.03561
0.666193
1.87494
1.20325
0.656087
0.715941
1.23075
2.157
2.30207
2.72045
1.1906
1.28711
1.11
1.0261
1.07956
1.18224
2.18878
1.55576
2.39257
1.18646
1.02716
0.821973
2.56455
2.00854
0.963109
1.4697
1.93548
1.37928
0.944235
1.71575
1.754
1.9361
2.07813
0.837601
1.63878
1.32888
1.05709
1.24378
0.791396
1.21682
2.4713
0.783828
1.84202
2.46932
1.96855
1.3642
1.17545
1.37211
3.44504
1.19563
1.32462
2.53181
1.21614
2.21059
1.28
1.35439
1.35168
2.89144
3.11756
2.70058
1.4434
1.5693
2.93747
3.08359
3.24968
3.64405
2.18441
1.25492
0.964718
1.25817
1.79705
0.907316
1.63979
1.25846
1.3487
1.13721
1.43911
1.55739
2.30138
1.53613
1.15826
1.28248
1.23051
2.63531
0.685595
2.81986
1.26519
1.19522
0.815457
1.1803
1.42009
1.09254
0.888932
0.966882
1.061
2.30823
2.54126
0.806219
0.849019
1.18062
1.63696
1.33838
1.61734
0.731494
1.59276
0.878915
2.82358
2.07311
2.71419
1.6307
1.64557
0.578831
0.696018
2.40088
2.34055
3.52698
3.00064
2.76992
1.61115
1.21763
1.46454
0.927932
1.1053
1.09622
1.01788
1.78422
1.05548
1.04712
1.53967
2.092
1.965
3.27958
2.21433
1.00163
1.5298
0.950387
1.31751
0.795229
1.98864
2.09873
0.679083
2.19114
1.86661
1.19996
1.52019
1.27191
1.61949
1.33421
6.19095
5.27286
2.61171
2.58476
1.26104
1.20972
2.39175
1.15546
2.32392
1.2362
1.69264
1.37658
1.13273
2.05544
1.91952
1.7189
2.30762
0.738201
1.0551
1.79077
1.95599
2.01337
2.25948
1.8135
1.0525
3.949
2.41829
1.18853
3.15968
3.06755
2.9454
0.792562
1.55944
1.46162
1.06554
0.668756
1.39385
2.16277
2.71965
1.09759
1.17034
1.04382
2.49936
2.61352
2.01017
1.19879
0.729845
1.05858
2.42871
1.71364
1.82664
1.04146
1.96926
2.04484
1.18106
3.13079
1.72913
2.81236
1.2366
1.32041
1.10886
1.06959
1.57733
0.736372
0.694323
1.25853
1.10958
3.09812
0.868251
1.10575
0.749143
0.876317
1.6009
0.75673
0.968653
0.947171
0.526162
2.06951
1.28618
1.2035
0.662444
1.12039
1.07684
2.05902
1.0676
1.14967
1.26357
1.12649
2.48281
0.684642
0.864277
0.99275
1.14036
1.32268
0.777144
0.950809
2.2876
1.22536
1.27785
1.33989
1.24615
0.97681
1.68785
0.995962
2.117
1.55256
1.05095
2.08384
1.4733
1.53647
1.829
1.88028
1.67355
1.2857
2.58017
1.51738
1.19096
1.06438
1.25397
1.38208
0.755851
1.47316
1.03559
1.83441
1.94614
1.9567
2.49743
0.690458
0.975007
1.1252
1.74327
1.10862
1.77368
1.24541
0.890964
1.55353
1.5842
1.86511
1.08897
0.655953
2.41759
2.08611
1.98444
2.42672
1.72214
0.954281
1.7906
1.48145
1.28974
2.81106
1.69815
1.34294
1.19003
0.703161
0.893963
1.2999
0.578249
1.37113
1.39542
1.34913
1.0442
0.665056
1.51531
1.4229
1.52656
0.829241
1.9776
0.903652
1.61613
1.2774
0.960897
1.67008
2.18098
1.95544
1.30117
1.95935
0.655125
1.00309
1.8878
0.662119
1.17432
1.67888
2.09128
0.720543
0.542224
1.34293
2.40886
1.49318
0.655268
1.05209
1.00624
0.781905
1.03234
0.991148
1.82995
1.37012
1.26631
1.03826
2.22627
1.24871
1.38519
1.37806
0.785107
1.46153
1.84132
0.683888
1.92312
1.87023
4.11607
3.64445
0.673663
1.03938
1.288
1.0416
1.1453
1.7145
1.85569
1.19276
2.40451
2.30095
1.82638
0.685934
2.74764
2.7314
1.25431
1.74717
1.47243
1.26616
1.47139
1.92862
0.912602
1.96979
1.8715
1.48871
0.946046
2.39719
1.3425
1.37781
1.36715
1.51402
1.31447
1.00431
2.19923
1.21922
1.92006
1.4843
0.721821
2.13116
1.52049
2.09407
1.95364
1.4164
1.36508
0.696462
1.25869
1.38301
1.75211
1.25019
1.67899
1.27353
1.05271
1.42578
1.89757
1.7877
1.89788
1.20594
1.35402
1.52589
0.677013
1.00859
2.1266
0.669722
1.80779
1.99723
0.971868
0.692025
1.9191
2.49858
2.14046
1.19048
1.00721
1.06373
0.977931
1.02622
1.30911
2.39377
1.55036
0.777243
1.25594
1.37684
0.711621
1.3275
0.691726
2.00487
2.87843
2.62138
1.82917
0.759003
0.946767
1.37733
1.34086
0.934791
1.2548
1.2322
1.75907
1.50165
0.924195
1.07846
0.957892
1.67485
0.668621
0.835873
1.48586
1.29618
2.57953
0.684542
3.06633
2.50826
1.25469
2.99944
0.640844
1.27937
1.1737
2.67734
1.42035
1.27511
2.2705
0.976649
1.51587
0.80079
2.44974
0.912783
1.36744
1.24105
1.22497
1.84904
1.86713
2.48949
1.81695
1.08566
1.83177
3.04963
1.30181
2.86288
1.01936
1.34579
1.47542
1.97948
0.765061
1.76126
1.27765
1.13289
0.663175
2.82002
1.07281
1.99569
1.35857
1.79083
0.688494
0.998974
0.735599
2.29212
0.889993
0.667948
0.670367
0.914264
0.768456
1.29609
2.24972
2.4253
0.755607
1.72192
1.45106
1.39765
0.905939
1.4217
0.737718
1.05173
1.17475
1.68013
1.5169
1.73949
0.733436
1.38475
2.78618
1.60085
1.75134
1.17436
1.62688
1.80015
2.0549
1.45304
1.41195
2.63044
2.68491
1.53108
1.28847
1.45204
3.36077
2.20814
0.732036
1.24688
1.36022
1.45938
1.24009
0.627146
0.804063
2.25542
0.687623
0.744909
0.830005
1.27813
1.06475
1.1178
2.23182
1.59862
2.03175
1.79309
1.99702
2.19984
1.99045
2.2349
1.69703
1.04267
1.34869
1.33647
1.37582
1.0522
2.79967
1.88043
1.17913
0.757242
0.762982
1.88857
1.88183
1.01709
1.24041
1.36542
1.60211
1.17811
1.38934
1.73196
1.18153
0.810872
0.847305
1.97415
1.25573
1.71655
1.48563
1.1394
1.90159
2.19718
0.729202
0.746374
1.39182
0.844892
0.891634
1.03259
1.17817
1.76151
1.26079
1.25853
2.14849
2.22385
1.77675
1.75961
1.76525
1.44453
1.35812
2.08954
2.46485
1.99347
1.20279
1.06452
1.46772
2.80902
2.76073
1.14363
2.96017
1.50121
1.02546
1.46416
1.74876
1.52925
1.25918
1.24024
1.11295
1.24301
0.769938
0.742593
1.01069
0.971666
1.03501
1.43098
1.08575
1.60806
1.32407
1.35731
1.37589
1.37757
1.85922
3.21984
0.913773
0.864738
1.0163
0.89845
0.726093
0.99602
1.00349
1.21155
0.993203
1.30135
0.76967
1.47303
1.63869
0.89327
0.952915
2.19816
1.35899
1.41296
1.22203
0.778912
0.87359
1.9295
2.39668
2.44597
1.01246
1.97651
0.749912
0.852865
0.838587
1.18222
0.906861
2.29634
1.33941
0.689161
0.947371
1.32455
1.09131
2.11543
1.62255
1.5742
0.960569
1.04315
1.46934
1.49571
1.72155
1.0911
2.59418
3.10964
1.61787
1.26076
1.45281
2.31016
1.64423
0.716982
0.730929
2.25237
0.694948
0.651945
0.740802
1.82136
1.48238
1.46723
1.03413
2.85899
0.820528
1.1269
1.01304
2.12712
2.15105
1.15436
1.78443
1.94989
3.11701
1.22145
0.938565
1.20393
1.43908
1.19232
1.97174
1.99647
2.27258
3.57001
0.678689
0.992028
1.27617
1.4511
1.11671
0.859703
2.0163
2.90694
0.704122
4.09625
1.98348
2.32127
0.939273
1.31366
1.07308
0.661997
0.661783
2.29597
2.19521
1.50174
1.22276
0.904978
1.07441
1.01453
1.74611
1.22417
1.14605
1.769
1.45348
0.732036
1.59061
1.63389
1.62083
1.48922
2.14514
2.34939
1.67249
1.02223
2.27196
1.1117
1.17509
1.61257
1.19064
1.3543
2.04876
0.904207
0.798952
0.817643
1.03535
1.17404
1.70659
2.11109
1.13082
1.88797
1.14676
1.8216
1.91104
1.19507
1.47121
1.73705
1.51724
1.24417
1.14165
1.54232
0.95693
0.906439
1.38102
2.46498
1.51274
2.31286
1.12735
2.09764
2.36666
1.6032
0.809802
1.94937
0.91896
1.14992
2.06096
2.28591
2.25165
1.42087
1.65237
0.882237
0.769934
1.13013
1.38863
1.30149
1.01201
1.50435
1.82663
3.4286
3.09963
2.57256
1.06999
2.36561
3.10984
1.21174
1.22042
1.08534
1.03315
3.24057
1.09618
1.59308
2.66049
1.19149
1.92917
2.12225
1.61329
1.57619
1.17518
1.28783
1.18946
1.78848
1.24032
2.13421
2.15057
1.30646
1.69403
0.690907
0.877694
1.49658
2.45935
0.746301
1.67351
1.09949
2.31751
1.12837
1.04857
1.91819
1.55273
1.36749
1.28477
1.49341
1.27811
1.28505
1.65374
1.28086
1.36211
1.51297
1.24845
0.776995
1.34364
1.55629
2.91313
2.96042
2.43302
1.07497
0.728215
1.28741
1.59959
1.61655
1.09305
0.808378
0.858188
2.27188
1.4392
1.429
1.68718
2.62319
2.6564
2.21595
1.30736
1.56615
1.47989
2.32872
2.07429
2.42257
1.4153
1.93816
1.47143
3.17901
3.2515
2.24005
1.25722
1.28605
1.09076
1.48342
0.901878
1.04854
1.09432
1.50046
1.64149
0.973384
1.28352
1.52034
2.49288
1.93169
0.934731
1.34262
1.12363
1.52045
2.63516
0.730308
0.683929
1.95612
1.7637
1.01461
2.11666
0.846701
0.806148
2.52894
2.42843
0.968031
1.28356
1.18169
1.33196
2.63471
2.7201
0.877359
2.36609
1.94352
1.30504
1.09253
1.08683
2.65858
1.11893
1.20567
0.974882
1.36667
1.18398
1.33635
1.24511
1.62061
0.678016
0.679717
1.16987
0.976249
2.40266
1.31792
1.2906
1.27256
1.33432
0.893971
1.00957
1.07452
0.789263
1.87616
0.668005
0.819992
0.692086
0.710605
1.35849
1.45261
0.811529
1.75852
1.91039
1.87276
2.91345
0.905991
1.55019
2.47909
1.71199
1.07895
1.05738
1.33159
3.22307
2.41582
1.14333
1.25032
0.642337
2.93015
1.07666
1.21217
0.952004
0.650022
1.40518
0.836443
4.38612
1.40031
0.93872
1.77857
1.77198
2.15129
2.6082
1.29115
1.84312
1.88058
3.21664
2.34684
1.48748
0.680746
1.41298
1.02979
1.16893
0.840698
2.21735
1.41344
1.81944
1.53748
0.973882
0.923243
2.57598
1.14615
1.34664
0.777984
0.83163
0.76851
1.64831
1.27678
1.52787
1.20294
1.9814
0.71509
1.33608
1.07069
0.894338
1.50485
1.34226
1.21542
1.14238
1.18644
0.68441
0.932082
0.694646
1.04556
1.72011
0.941548
0.939598
1.86633
1.69232
1.90564
1.29212
1.07686
1.06434
1.07634
1.40793
2.50999
2.17194
1.64752
1.11512
1.49644
1.17736
1.49279
1.37033
2.97513
1.52604
1.17058
0.883008
1.95504
1.91375
0.740403
1.41786
1.48827
2.52441
2.64563
2.87187
1.58817
2.69728
1.39934
1.32438
1.05668
0.734749
0.674245
1.79369
1.68931
0.689636
1.09488
0.855983
0.665413
0.894489
1.32477
0.718006
0.708959
1.53563
1.20668
0.714654
1.1185
1.47514
0.980403
0.647148
1.46752
2.69506
4.01368
2.39582
3.0652
2.43937
0.782271
1.21516
0.676341
0.687554
1.40979
1.22924
2.41293
2.16924
0.722493
1.3236
2.7241
0.951487
1.47803
1.25516
1.11522
0.871941
1.32425
1.04286
0.975726
3.46469
1.10613
1.73506
1.73552
1.66522
0.628795
1.93325
0.827553
1.58835
1.1045
1.49054
1.68054
1.37737
0.996489
0.925047
1.52513
3.05183
1.95857
1.82532
2.65347
0.637937
0.688504
1.25381
1.11687
1.78677
0.931993
1.50768
1.0179
1.21588
1.2046
1.23021
2.40102
3.07077
1.12902
2.9874
0.955591
1.03587
1.86205
3.048
1.19035
1.7617
1.00169
1.19279
1.53838
1.81996
2.31529
2.11003
1.45942
1.10288
0.959699
2.52017
2.36457
2.55345
1.76777
1.65404
2.61948
2.52347
1.54991
1.79178
0.593705
1.58926
1.70892
1.53012
1.28623
2.11301
2.46146
1.36464
1.57755
1.8359
2.19426
1.21946
1.27208
2.68296
3.0747
0.922455
0.980028
2.28172
1.44184
2.87975
1.11444
3.09615
0.898342
1.85822
3.05304
1.98897
1.65999
2.27126
3.12693
1.56958
1.6048
1.37557
1.70155
1.74272
1.55167
0.931417
1.15425
2.04113
2.51566
1.02971
2.18651
0.742492
1.06835
1.1907
2.69418
0.987324
1.9964
1.10703
0.887961
1.24965
0.888117
0.977818
1.24543
2.78163
1.30504
2.78136
2.06724
1.51591
1.8903
1.32989
2.7851
2.91742
1.4833
1.50905
1.42759
1.29657
1.5423
1.40983
1.24961
1.23286
1.36265
0.913799
0.89814
1.13726
1.14339
1.29744
0.957517
1.54247
0.985182
2.16155
1.23805
1.70328
1.09906
0.942973
3.55609
1.10566
1.33355
0.901707
0.856553
0.813658
0.948632
0.858844
0.762302
2.27864
1.1159
1.28262
1.66104
1.21526
1.14106
1.28136
2.63531
1.6109
1.29335
0.929287
1.16278
0.924989
2.07454
1.23851
2.11894
1.24245
1.88277
1.00858
1.15722
1.38079
1.63819
1.20791
0.890831
2.04112
2.19304
2.28306
1.52013
1.05716
0.720628
1.67943
1.24771
1.91211
2.47046
1.20708
1.08091
1.2089
0.750387
0.687257
0.681297
1.53149
1.22434
0.656646
0.998991
0.651099
1.90917
2.4677
2.77988
2.12131
2.32891
2.49232
2.80877
0.849548
2.72101
1.31321
0.902402
1.39544
1.37092
0.651689
2.09466
0.875637
1.43612
0.910746
1.44705
1.7327
1.30092
1.52211
0.733898
0.807095
1.14571
0.941239
2.06863
1.69867
1.83206
2.00353
1.61855
1.87494
2.17615
1.04804
3.06049
0.930452
0.966641
1.80574
1.92711
1.23685
3.5748
1.88388
0.731099
0.748472
1.48239
2.23543
0.778855
1.30421
1.07462
2.60379
1.12164
1.02749
0.996366
0.717198
0.88192
3.13292
1.04824
1.30362
1.24118
2.00783
1.33597
2.03336
1.28801
1.37952
1.00486
1.45853
1.40512
0.943011
1.47861
1.35551
1.78677
1.45885
1.02069
2.61536
1.05801
1.04754
2.5562
1.95736
0.728187
0.670432
0.674177
3.11843
0.993752
1.4326
2.91357
2.95254
1.89653
1.11683
1.29384
2.34426
1.63994
1.29223
1.33919
2.62193
2.44757
1.00055
1.141
1.2175
1.1244
0.953473
1.48102
1.97808
1.65395
1.14147
3.18629
2.9589
2.92847
2.74082
2.94135
2.92922
2.73511
2.19962
0.774975
0.728405
1.32437
1.10127
1.12927
1.58499
0.742033
1.48603
0.779187
1.3207
1.1979
1.0137
2.46567
1.08951
1.97536
1.0243
2.71326
2.27596
1.99165
0.974198
2.13965
1.19104
1.11515
1.1301
0.895651
0.911516
2.00335
2.02375
1.01285
2.56506
2.38089
0.764466
1.36418
0.920946
2.44587
2.63068
0.677866
0.914216
2.28475
1.1277
2.84946
2.21043
0.917038
0.65724
2.15463
1.00091
0.711374
1.85004
1.64734
0.714785
2.08098
2.78542
1.96281
1.18785
1.25024
0.661309
1.22117
0.682974
2.57353
1.13714
1.57929
1.09958
1.10454
0.962986
2.29403
2.09557
2.31808
2.20622
0.959869
1.00764
1.39946
1.33406
1.7667
3.09369
3.62989
1.48047
1.88643
0.88392
1.23501
1.44332
1.36806
1.16911
1.52127
1.20496
2.23875
2.51684
1.22103
2.0219
1.22671
2.04392
2.27483
1.1427
1.57062
1.40751
0.976959
1.64433
1.49777
1.65551
1.76914
2.25627
1.6306
1.74062
1.28558
0.647478
1.04378
1.07408
2.11101
1.75775
2.14453
0.753618
2.1346
2.66592
1.02036
1.93636
2.16078
3.26241
1.70923
3.03761
1.84301
0.791264
0.935504
0.912389
0.913968
1.15512
2.48723
2.62757
2.0355
1.17674
1.95287
0.721602
0.672958
0.862753
1.71678
3.47889
0.794375
2.70852
2.62197
3.67683
2.97564
2.30646
2.37776
0.696104
2.84521
2.92
0.908063
1.83567
1.30716
1.32357
1.35134
0.887226
1.20872
0.815488
3.20095
2.87877
0.95038
1.53506
1.15797
0.653243
0.898062
0.690678
2.32796
0.927994
1.21869
1.03482
1.00631
1.67275
1.33177
3.04518
0.933518
2.3403
1.03869
2.39566
1.51061
3.0942
1.0876
2.04882
1.25392
0.991388
1.13266
2.00432
2.21781
1.62088
0.732788
0.723738
1.30599
2.44515
1.06125
1.90756
2.17539
0.721442
0.724451
2.20238
2.45028
1.95222
0.614667
1.31657
0.898275
1.86852
0.84123
1.60519
1.79403
1.71784
2.40598
0.855735
0.776055
1.33794
1.19511
1.40475
0.996567
0.992361
1.56372
0.653985
2.27834
1.66991
2.02858
0.993717
1.43103
1.2819
1.07543
3.14173
0.754974
1.17598
1.00613
1.75255
1.92388
1.01231
3.33742
1.32861
1.0724
1.76203
1.27231
2.76807
2.64803
1.25853
2.88164
2.56328
0.69281
1.87275
0.870389
2.54193
1.83206
1.17015
0.704916
1.40018
2.29176
2.10853
0.656104
1.1175
3.05483
2.45171
2.18462
0.76938
1.26528
3.17538
0.664301
1.34788
0.992886
0.997233
1.12092
1.11005
1.98041
1.80181
2.62956
0.827646
1.21408
2.01882
0.954518
1.30051
1.15707
1.31548
1.0594
1.05606
1.69904
1.65206
0.700942
1.14545
3.10564
1.80444
2.01399
1.50171
1.28088
1.46567
1.33311
2.1418
1.33878
1.50325
1.21942
0.863834
0.799239
3.14366
3.6073
1.3671
2.38484
0.573033
2.18068
1.25814
1.17072
1.01914
1.1974
0.919522
1.96367
0.761434
1.80926
1.27875
0.854738
0.68419
1.23679
1.43613
0.944756
2.42085
2.46138
3.16332
0.952533
1.49401
1.62717
2.82811
2.0592
1.52813
1.3408
0.699696
2.12662
1.20818
1.19206
1.17972
0.850137
2.63963
1.95565
1.7801
1.30539
2.38039
1.72459
2.39462
1.44343
2.60727
0.908823
1.38648
1.01681
0.771959
2.16402
1.93336
2.93656
1.86908
1.50043
1.98927
2.5607
3.00616
2.51686
1.08421
1.14443
1.11032
2.51172
1.33707
1.09244
2.17887
2.9235
1.06342
1.05087
2.09469
0.91899
2.08613
1.55445
1.52882
1.85797
1.89081
1.37862
0.61293
0.683588
0.659592
1.08044
2.57856
2.89797
1.97289
1.18819
2.12229
0.591921
1.47818
0.694907
1.2135
1.28943
2.02263
0.72175
2.20588
1.28539
1.00298
2.62201
0.912624
0.964133
1.07196
1.71557
1.2779
1.98403
1.19807
1.1785
0.685309
0.787671
1.28278
0.714753
1.21934
1.969
1.89526
0.985186
0.973299
1.00868
0.770712
1.17914
1.46812
1.6485
1.4858
1.25315
0.682775
0.868447
2.97416
0.941372
1.07744
3.48667
1.42007
1.3761
3.16303
0.926123
1.14317
1.15255
0.657791
0.752433
1.49115
1.0828
0.695814
1.35387
1.45242
1.21093
3.41233
1.07922
0.948389
1.74196
0.745254
0.727709
1.10465
2.27278
2.425
1.55523
1.55846
1.84082
4.10659
3.22974
1.34543
2.28506
0.8844
0.994907
1.25944
2.15717
0.829931
1.35481
0.845128
3.16218
1.08446
0.776906
1.4261
1.35459
1.81838
0.661723
1.75504
1.68388
2.50554
2.53231
2.56053
3.03588
1.87449
1.48673
1.13091
1.95481
2.53018
2.73358
1.286
3.19602
1.2605
1.93199
2.50727
1.33938
1.47477
0.621068
1.03471
1.2422
2.82928
1.60893
1.40357
2.4666
1.49585
0.947788
1.35984
3.41594
2.11296
0.66498
2.74538
2.20736
1.03
1.17997
2.52951
2.99399
1.05754
2.34233
1.7998
3.06202
0.710585
1.68121
0.671927
0.837783
0.803989
2.67137
0.705308
1.25716
1.81859
0.800782
1.5423
1.06979
1.55225
1.37207
1.48895
2.34579
1.91365
2.37179
1.498
1.42826
1.58909
1.10525
1.14927
1.44998
2.1628
1.59863
3.13632
1.20744
2.25923
2.20609
1.3088
0.861009
1.20371
1.05926
1.24067
0.792554
0.87874
1.13503
1.05214
1.19494
2.16542
1.07646
0.745557
1.37752
1.50204
1.58445
1.33021
1.07486
0.691436
1.88225
1.84721
0.829453
0.885957
1.84351
0.941524
0.754169
0.745773
1.26461
2.29639
0.739397
3.14986
1.28854
1.71133
2.47477
2.65212
1.08562
1.96166
1.89449
1.28385
2.79123
2.51845
0.779901
0.754598
0.855779
2.78147
1.0385
0.835588
1.27047
1.06047
3.47051
1.73995
2.77958
2.01405
1.09816
1.60366
1.5333
1.5345
1.90206
2.2349
1.39934
1.28259
1.17897
0.748984
2.58122
1.25346
1.40765
0.753928
0.714546
0.76036
0.749604
2.00357
2.47045
1.4016
2.58082
1.27608
3.43218
1.29194
2.23429
1.27993
1.5378
1.78529
1.61634
1.51896
2.19941
1.65055
1.67384
1.87684
2.00502
1.17389
1.2822
1.26483
2.14284
0.853797
0.695844
0.865307
0.685005
1.86896
2.05625
1.14848
0.813315
1.65715
1.17699
0.969687
1.76579
2.62295
1.4243
1.3291
0.652391
2.38029
2.38644
0.976442
0.716689
0.938826
1.16885
1.80248
0.979768
2.07333
1.27732
2.20148
2.04102
1.93796
0.730211