/*--------------------------------*- C++ -*----------------------------------*\
| =========                 |                                                 |
| \\      /  F ield         | OpenFOAM: The Open Source CFD Toolbox           |
|  \\    /   O peration     | Version:  2212                                  |
|   \\  /    A nd           | Website:  www.openfoam.com                      |
|    \\/     M anipulation  |                                                 |
\*---------------------------------------------------------------------------*/
FoamFile
{
    version     2.0;
    format      ascii;
    arch        "LSB;label=32;scalar=64";
    class       volScalarField;
    location    "10";
    object      nut;
}
// * * * * * * * * * * * * * * * * * * * * * * * * * * * * * * * * * * * * * //

dimensions      [0 2 -1 0 0 0 0];

internalField   nonuniform List<scalar> 
305690
(
0.00124898
0.00104579
0.000703424
0.000902161
0.000949125
0.000899933
0.000852504
0.000884572
0.000979937
0.00096746
0.00117623
0.00117351
0.00103003
0.00109544
0.000997135
0.00105948
0.00120861
0.000957642
0.000750519
0.000963055
0.000796324
0.000779613
0.00121024
0.00066753
0.00107733
0.000978073
0.000722219
0.000867268
0.000821461
0.000808521
0.00113349
0.00101565
0.00105162
0.000791245
0.000756392
0.000792416
0.00099972
0.00107966
0.00114549
0.000764134
0.00103396
0.00094547
0.00103648
0.000914198
0.000815136
0.000942357
0.000566632
0.000985902
0.000900088
0.000734642
0.000857358
0.000895298
0.000888251
0.00105256
0.00110882
0.00125226
0.000893589
0.000997342
0.000807706
0.000903364
0.00118126
0.000948895
0.00116063
0.00104539
0.00112886
0.00117642
0.00124156
0.000962035
0.00135176
0.000837792
0.00111085
0.000963601
0.00125949
0.00124175
0.00110549
0.000752701
0.000970003
0.00125317
0.000661364
0.00087744
0.000713214
0.000872941
0.00100422
0.000881245
0.000985555
0.000781445
0.000927169
0.000850154
0.000870227
0.000873451
0.000899545
0.0010772
0.000926886
0.00106975
0.00103985
0.000918044
0.000835955
0.000837272
0.000906435
0.000891372
0.000917939
0.000986013
0.000941169
0.000972403
0.00097241
0.000804631
0.00107968
0.00105476
0.00110182
0.00083838
0.00115482
0.0012129
0.000855182
0.000877801
0.00111447
0.00104118
0.00109439
0.000889922
0.000918204
0.000900139
0.00105168
0.00117823
0.000690222
0.000981462
0.00117343
0.000854333
0.000918205
0.000836262
0.000895666
0.00106399
0.000855155
0.000922772
0.000902873
0.00104992
0.00123619
0.000969503
0.000855553
0.00103461
0.000691244
0.00115452
0.000948803
0.000763506
0.000729715
0.00116115
0.00116875
0.000772778
0.00100764
0.00105973
0.000790194
0.001355
0.000930149
0.00106135
0.000729865
0.00126514
0.00116505
0.001247
0.00141192
0.000891833
0.00101163
0.000991793
0.000770011
0.000929108
0.00101839
0.00140723
0.0011611
0.000865906
0.000757168
0.0011658
0.000932532
0.00112747
0.00104506
0.0010962
0.00105334
0.000986851
0.000814548
0.00081315
0.00105347
0.00102228
0.000659303
0.00122041
0.00107153
0.000786361
0.000948058
0.000968926
0.000923871
0.00114533
0.00110948
0.000871629
0.000954636
0.00103171
0.000928253
0.000779299
0.000696084
0.000875913
0.00120282
0.0013134
0.0012346
0.00118161
0.000766052
0.000794942
0.000717878
0.00088471
0.000887276
0.000897722
0.000888852
0.00104216
0.0012442
0.0013833
0.000887648
0.000910507
0.000842948
0.00118085
0.00118091
0.00100378
0.000782834
0.0009864
0.000942281
0.00109601
0.00112041
0.0010082
0.000780463
0.000749175
0.000819519
0.000966882
0.00115564
0.00116795
0.00106013
0.000871146
0.000636923
0.000719427
0.000737635
0.0010551
0.00106196
0.00141032
0.00133193
0.00125896
0.00127084
0.000961112
0.0010944
0.00137382
0.00127909
0.0010611
0.000970059
0.000777315
0.0015046
0.000872692
0.000872241
0.000704401
0.000901039
0.000758533
0.000994964
0.000911916
0.0010619
0.000841264
0.000865034
0.000889742
0.000849945
0.00113205
0.00105354
0.000825651
0.00076768
0.00122655
0.0010647
0.00108178
0.000947063
0.000701656
0.000919558
0.00114628
0.000879535
0.000766614
0.000836688
0.00123338
0.00143229
0.00127798
0.000929005
0.00129666
0.00124854
0.00130929
0.000956891
0.00109131
0.000813746
0.00093204
0.00120082
0.00111824
0.00105812
0.000996336
0.00103884
0.00080576
0.000981165
0.00079088
0.0010166
0.00114568
0.00125263
0.0012511
0.00077206
0.000900016
0.000905557
0.000767636
0.00106031
0.00136569
0.000770898
0.00083339
0.00119065
0.00111872
0.000804203
0.000923425
0.00110627
0.00081079
0.000979872
0.000969598
0.000846232
0.000942057
0.000718976
0.00121972
0.000966189
0.00109476
0.000805772
0.00130615
0.00160393
0.000837185
0.000710978
0.00107907
0.000950296
0.000868911
0.000776825
0.00110436
0.00120915
0.000889927
0.000883626
0.00104204
0.000898679
0.00129663
0.000900405
0.00102575
0.00133858
0.00123647
0.00116326
0.000727109
0.00115521
0.000961948
0.00131773
0.00128233
0.000981089
0.00112965
0.000990756
0.00113528
0.00109658
0.000798342
0.000924016
0.000948725
0.00106378
0.00101314
0.000798206
0.00110222
0.00105635
0.000813292
0.00074443
0.000971134
0.000958589
0.00098364
0.000795227
0.000762736
0.000757883
0.00157229
0.00099273
0.000853162
0.000840284
0.00137765
0.00153591
0.00111172
0.00111492
0.00106082
0.0010152
0.000824232
0.00109278
0.00100444
0.000995187
0.000902958
0.000855943
0.00114623
0.000851493
0.000812969
0.000845987
0.0012313
0.000840846
0.000864956
0.000875946
0.00172216
0.000945138
0.000751463
0.000821658
0.000969921
0.000917602
0.000713796
0.000800253
0.000795844
0.000865923
0.00133061
0.0010298
0.000808367
0.000794072
0.00102459
0.000823074
0.000787893
0.000982631
0.000832925
0.00143979
0.000666695
0.00132791
0.000824591
0.000860701
0.000985038
0.00101999
0.000855959
0.000874193
0.00109115
0.000740941
0.0012753
0.00120481
0.00131678
0.000806491
0.000795227
0.00112493
0.000845004
0.00114393
0.00090482
0.000827821
0.00111246
0.00109543
0.000810982
0.00104993
0.000838293
0.00104715
0.000911933
0.000858133
0.00142478
0.00107516
0.00106653
0.000947162
0.00125983
0.000829377
0.00089497
0.000971224
0.000859535
0.000929149
0.00108662
0.00111385
0.00100216
0.000889985
0.000765773
0.000730004
0.000775262
0.000915828
0.000989799
0.000890152
0.000943159
0.00124556
0.000891667
0.000845597
0.000863163
0.0012282
0.00104911
0.00107354
0.00103876
0.000866878
0.0011877
0.00107625
0.00123595
0.00112976
0.000814318
0.00120382
0.00104147
0.00105126
0.00107263
0.00126013
0.000833978
0.0011444
0.0011787
0.00125592
0.000953103
0.000967404
0.00107856
0.00105573
0.000939308
0.00126482
0.000902769
0.000941605
0.00120304
0.000881741
0.00108635
0.000714619
0.00108618
0.00113885
0.00116546
0.00087302
0.00089001
0.000831478
0.000974359
0.00164927
0.00131802
0.00141836
0.00115622
0.000980995
0.00103476
0.00119413
0.00106644
0.00100747
0.00100577
0.00108506
0.00106295
0.000882436
0.00089352
0.00128871
0.00131641
0.000892772
0.00103501
0.00102578
0.000945127
0.000956812
0.000825235
0.000841393
0.0010256
0.000699352
0.000895719
0.000664135
0.00112844
0.00106237
0.000839077
0.000859387
0.000867756
0.00152831
0.000797531
0.000710716
0.00104165
0.000801338
0.000860799
0.000948774
0.000897426
0.000799468
0.000940517
0.000938065
0.000894686
0.00106031
0.000872813
0.0009869
0.00107369
0.000932146
0.00119999
0.00118895
0.000894302
0.000862818
0.00120605
0.00119965
0.00131298
0.000827706
0.00132283
0.000914531
0.00100669
0.00083007
0.000874259
0.000931681
0.000967738
0.000954383
0.001192
0.000820866
0.000963839
0.000817394
0.0010025
0.000952054
0.00095986
0.000843532
0.000851859
0.000790475
0.000879013
0.00105197
0.00107391
0.000984254
0.00109818
0.00075583
0.00103679
0.00100162
0.000821325
0.000818952
0.000931492
0.00164094
0.00131593
0.00108799
0.00105549
0.00123831
0.00110254
0.00115255
0.00084275
0.000889197
0.000991741
0.000753936
0.00100751
0.00113466
0.00116738
0.000879957
0.00104511
0.000765246
0.00100235
0.00116357
0.000932313
0.00112017
0.00109553
0.000999052
0.00105947
0.00120699
0.000862484
0.00110262
0.00128762
0.000818679
0.000710193
0.00123592
0.00129017
0.000763599
0.00129226
0.0012691
0.000764642
0.000743784
0.00123691
0.000843762
0.000908495
0.000981605
0.000976243
0.000898466
0.00122956
0.000846971
0.00123844
0.00123672
0.000871745
0.00117119
0.000962863
0.00084057
0.000915077
0.000886396
0.000949856
0.000881824
0.00113199
0.000754141
0.00101032
0.00106359
0.00106398
0.000999473
0.0010292
0.00083835
0.00116395
0.000834094
0.000749251
0.00106237
0.00110535
0.00133865
0.00074565
0.000746815
0.00113987
0.000787402
0.00107274
0.000996742
0.000747081
0.00104129
0.00104662
0.000997527
0.000917119
0.00101587
0.0010754
0.00111927
0.00109766
0.00096256
0.00122746
0.00103742
0.00103243
0.00099794
0.000907976
0.000904856
0.000768081
0.00101047
0.00091668
0.000795789
0.000787238
0.00126181
0.00120181
0.00132425
0.00106655
0.00143705
0.00104007
0.000970327
0.00100036
0.000781227
0.00075697
0.000928273
0.000841941
0.000940185
0.00099693
0.00113342
0.000940154
0.000825992
0.000874817
0.000893663
0.00107644
0.000827521
0.0011819
0.00097001
0.000995779
0.000875683
0.000932147
0.000879661
0.00100611
0.0010089
0.000830109
0.000759023
0.00118462
0.00108287
0.000963308
0.000889978
0.000986995
0.000755685
0.000853094
0.00129079
0.00144925
0.00110485
0.000994655
0.00107165
0.000905529
0.00101588
0.000902615
0.000921427
0.000903599
0.000954463
0.00130055
0.00108655
0.000959658
0.00136372
0.00120545
0.0010587
0.00147548
0.00117011
0.00122531
0.00123026
0.00123717
0.000857022
0.000805466
0.000951265
0.00135484
0.00109594
0.00119163
0.00133507
0.00107668
0.000825258
0.00109503
0.00131909
0.000985626
0.000802557
0.000935581
0.000680827
0.000981922
0.000950524
0.00135514
0.000816217
0.00105969
0.000793468
0.000779386
0.00132882
0.000981695
0.00131977
0.0013211
0.00124916
0.0012739
0.00107544
0.000898925
0.000964348
0.000884391
0.000867139
0.00090576
0.000922672
0.000644219
0.000834382
0.00101958
0.00130531
0.00127494
0.00107638
0.000704789
0.00108148
0.00105995
0.000977376
0.000730505
0.000696046
0.000952799
0.000773234
0.000916904
0.0012994
0.00130837
0.00110319
0.00104955
0.00111597
0.00077095
0.00111358
0.00114602
0.000864714
0.0010279
0.000988345
0.00122473
0.00079559
0.000871617
0.00102425
0.000830879
0.000912276
0.000872492
0.00101889
0.000997178
0.000739954
0.000766084
0.0010062
0.00102694
0.00104528
0.000857693
0.00110193
0.00128333
0.000811699
0.00134286
0.0012928
0.00126519
0.00101242
0.000916435
0.00134425
0.000898972
0.000856892
0.000915751
0.00090902
0.000987431
0.00103772
0.000996833
0.000855594
0.00100095
0.000881562
0.000788068
0.000816987
0.000839236
0.000933466
0.00093443
0.000845374
0.00117933
0.00113841
0.00115718
0.000946024
0.000988477
0.000913678
0.00150425
0.00127214
0.000987662
0.00112009
0.00114433
0.00113937
0.000884518
0.00120285
0.00111102
0.00111366
0.00110943
0.000894366
0.00146674
0.000975792
0.00124973
0.000833107
0.00105037
0.00074364
0.000861289
0.000979733
0.000907682
0.00125422
0.00107294
0.000828858
0.000992428
0.000818603
0.000798175
0.00103464
0.000884525
0.000996904
0.000923623
0.000908251
0.000857428
0.000925149
0.00120394
0.00121063
0.0013944
0.000940404
0.000833725
0.000909739
0.000775175
0.000850201
0.000808881
0.000970562
0.000987949
0.00107565
0.000975389
0.00107409
0.00125294
0.00105741
0.000725997
0.000925577
0.000841671
0.000894098
0.000969625
0.00077206
0.000974649
0.000777741
0.000766996
0.00122953
0.00136995
0.000710023
0.000861281
0.000763336
0.00096779
0.000852843
0.00102306
0.00100288
0.00112398
0.000833103
0.000765822
0.000833794
0.00102368
0.00075333
0.00111356
0.00101128
0.000974945
0.00092197
0.000936026
0.00106854
0.000753685
0.0013979
0.000736743
0.000808875
0.000812535
0.00106473
0.00104415
0.000883803
0.000922183
0.00123225
0.00124963
0.00104183
0.00130823
0.00111655
0.0011452
0.00110546
0.000745895
0.00114482
0.0010868
0.000920962
0.000813052
0.000944831
0.000910377
0.00107262
0.000885233
0.000856086
0.00111942
0.000779276
0.000991147
0.000945531
0.000760202
0.00105922
0.000810519
0.00101118
0.000993002
0.000929004
0.000695764
0.0011
0.00104681
0.00131355
0.000757703
0.000787274
0.0011709
0.00121626
0.00111255
0.00103793
0.000972025
0.0010741
0.00123926
0.000839413
0.000899649
0.000890577
0.000879485
0.00105117
0.00101068
0.000931098
0.0010567
0.00101701
0.00106763
0.00103282
0.00106976
0.00103086
0.00101487
0.000978876
0.00134841
0.000925269
0.00109786
0.0010155
0.000711934
0.00119038
0.00122322
0.000935704
0.00109531
0.000909774
0.00131106
0.000965549
0.00102274
0.000851895
0.00098237
0.00103099
0.0010493
0.001138
0.00110972
0.00100408
0.000850117
0.00103864
0.000863736
0.00107712
0.00133777
0.00111617
0.000794109
0.00112792
0.000785394
0.0010041
0.000738715
0.00100818
0.000698215
0.000727716
0.00116509
0.00120014
0.000848286
0.000690677
0.000757398
0.00130164
0.000956769
0.00095742
0.000716801
0.000761738
0.000741273
0.000870523
0.000885821
0.00122339
0.000920976
0.000909484
0.00123766
0.00118053
0.00108545
0.000946048
0.00095285
0.000889065
0.000841106
0.000978716
0.000955873
0.000916502
0.000846627
0.0007988
0.00116512
0.00100489
0.000878557
0.000759513
0.000871159
0.000917619
0.00111791
0.00124813
0.000824563
0.000986868
0.00117433
0.000634866
0.000677477
0.000934516
0.000978887
0.000768309
0.0010999
0.000783607
0.00111665
0.000781948
0.000867153
0.000850274
0.00126597
0.00139739
0.00111418
0.00100643
0.000859864
0.00096594
0.00126185
0.000823846
0.000762512
0.000921307
0.000894876
0.00121973
0.0010694
0.00128707
0.00115381
0.00104311
0.000996964
0.0010103
0.00095784
0.000925279
0.000987954
0.00130878
0.00100068
0.000911674
0.000842822
0.00137682
0.000803517
0.000779837
0.00077703
0.000947732
0.000980339
0.00105501
0.000888619
0.00104914
0.00108388
0.000896848
0.00100776
0.000935845
0.000988101
0.00117016
0.00117027
0.00104776
0.000825529
0.00115256
0.00130412
0.0010407
0.00126983
0.000764364
0.000718977
0.000863826
0.00093878
0.00105998
0.00108263
0.000890915
0.000792452
0.00101172
0.00125376
0.0012415
0.000861025
0.000763816
0.000819412
0.000932232
0.00103478
0.00100963
0.00111813
0.000756218
0.000851371
0.000824227
0.000926752
0.00118698
0.00112195
0.000868614
0.00101252
0.00104287
0.00100914
0.000970481
0.00144213
0.000915749
0.000867477
0.000777896
0.00129329
0.00132371
0.00112664
0.000784977
0.00101041
0.0012582
0.00113459
0.00106088
0.000793206
0.000762455
0.000714165
0.000814421
0.00123262
0.000921329
0.000887104
0.000909242
0.000935211
0.000817397
0.000905101
0.000825957
0.000872735
0.000888433
0.000808226
0.0007676
0.000891342
0.000727871
0.000880374
0.000985446
0.000943113
0.00095219
0.000762136
0.00139329
0.00110831
0.00106303
0.000947505
0.00100431
0.00173734
0.00127287
0.000871182
0.00102182
0.00102136
0.00128698
0.000736527
0.0010822
0.000998582
0.000888964
0.00114588
0.00112202
0.000822785
0.00110416
0.00120043
0.000747391
0.0010681
0.00108279
0.0011148
0.0010493
0.000762731
0.000835095
0.000872985
0.000962169
0.00100795
0.00144951
0.00110419
0.000904209
0.000888446
0.000808573
0.00114598
0.001265
0.0009959
0.00104067
0.00088927
0.000846951
0.000845771
0.000946404
0.000983147
0.000840944
0.000803321
0.00116441
0.00120891
0.000851106
0.00136203
0.00106723
0.00102946
0.00102721
0.00109588
0.00147646
0.000951207
0.000908406
0.00116219
0.00123094
0.00088224
0.00109268
0.000884206
0.00124154
0.00137573
0.000799199
0.000883472
0.00111254
0.00090004
0.000883584
0.00114602
0.000959969
0.001053
0.00123962
0.000790785
0.000943439
0.000917399
0.000909504
0.000731507
0.000753083
0.00123297
0.00127888
0.00135009
0.00103565
0.00117945
0.0011365
0.000983576
0.000816872
0.00129148
0.000898579
0.00129923
0.00108499
0.00127052
0.00112602
0.000790669
0.000844396
0.000883506
0.000835393
0.00123167
0.00121624
0.00098781
0.000913494
0.00107593
0.00119539
0.00138513
0.000766162
0.000653693
0.000982019
0.000754196
0.00106125
0.00129295
0.00104656
0.00109327
0.000848607
0.000786209
0.00114618
0.00120059
0.00127528
0.000785899
0.000923689
0.000916918
0.000870115
0.00107086
0.000976193
0.00135908
0.000997867
0.00111533
0.0012439
0.000986701
0.000969677
0.00118062
0.00126659
0.00127015
0.000888228
0.00105837
0.00132062
0.00101488
0.000758723
0.000887475
0.00132479
0.000914099
0.00091299
0.000907829
0.000801222
0.00101534
0.00134465
0.00099122
0.000887692
0.00126979
0.00115038
0.00106301
0.00110047
0.000750329
0.000783364
0.000811004
0.00110276
0.000769434
0.000952931
0.00103556
0.000757442
0.000802943
0.00129831
0.000839118
0.00109529
0.00110482
0.00113709
0.00131881
0.000739333
0.000896953
0.00111099
0.00128481
0.00124537
0.00095367
0.00108401
0.00113534
0.0010032
0.000787942
0.000938295
0.000895159
0.000937248
0.00105097
0.000878329
0.000837998
0.00102514
0.00106479
0.00126377
0.00106653
0.00123901
0.000811953
0.00108613
0.000919661
0.00110935
0.000907461
0.000909573
0.000695304
0.000846005
0.000918431
0.000829395
0.00112744
0.00112374
0.000827693
0.00103021
0.00106273
0.00128342
0.00103923
0.00105747
0.000879277
0.00100797
0.00089654
0.00127008
0.00100744
0.000945104
0.00123322
0.00115682
0.000991377
0.00107453
0.00098801
0.000753893
0.000966502
0.000934231
0.000861791
0.0010535
0.00124907
0.00123942
0.000879592
0.00108866
0.00119624
0.00112038
0.000978569
0.000900535
0.000898381
0.000767692
0.00109893
0.000797316
0.00130348
0.0013114
0.00113007
0.00109597
0.00102611
0.00103516
0.00120105
0.000916961
0.000838636
0.00113361
0.000898881
0.000924217
0.000912514
0.000863175
0.00100373
0.000968346
0.00119075
0.00103906
0.000995724
0.00087021
0.000822631
0.000851628
0.00165677
0.000938058
0.00108537
0.000767902
0.00104036
0.000984851
0.000898652
0.000913954
0.00102789
0.000906259
0.00091858
0.000731205
0.000713075
0.00139678
0.000891531
0.000928408
0.00109499
0.00112689
0.00108374
0.000875254
0.000877392
0.00140139
0.00102613
0.00111336
0.00104622
0.000882363
0.00120055
0.00106978
0.000819704
0.00075999
0.0010376
0.000772947
0.00100671
0.00105552
0.000832376
0.000948405
0.00135794
0.00113177
0.000862928
0.000860752
0.000992994
0.00101472
0.00115494
0.00102379
0.000720654
0.000864041
0.00108255
0.0012097
0.00086288
0.00082605
0.000876832
0.000901972
0.000848669
0.00127788
0.000934106
0.0011088
0.0012544
0.000879084
0.00125212
0.000840658
0.000815144
0.00101586
0.00116689
0.000749265
0.000863567
0.000964806
0.000988611
0.00144098
0.00139327
0.00125523
0.000905527
0.00098404
0.00105414
0.000894718
0.000798075
0.00083009
0.000928834
0.00107412
0.00105481
0.000840986
0.000913753
0.00069365
0.00129138
0.00106341
0.000988812
0.00123765
0.000943834
0.000805975
0.00100542
0.00102093
0.00105126
0.000858464
0.000908462
0.00103999
0.00112176
0.000947577
0.00115552
0.000925559
0.000850718
0.000924173
0.00125635
0.00102669
0.00100718
0.000853492
0.001101
0.00097632
0.000884856
0.000810991
0.00111737
0.000871638
0.000848672
0.00114888
0.000770026
0.00118233
0.000833669
0.00106996
0.00105237
0.00142153
0.00140893
0.00094722
0.00100188
0.000926823
0.00155253
0.00158046
0.00124196
0.00137778
0.000862025
0.000871921
0.000816384
0.000860707
0.00081888
0.00100415
0.00106114
0.000837445
0.00106848
0.00084521
0.000911657
0.00104756
0.00112731
0.00125212
0.000849936
0.000744282
0.000829652
0.00137537
0.000882693
0.00137623
0.000968204
0.00104108
0.000902171
0.00107418
0.000975837
0.00117742
0.000765374
0.000948641
0.00099666
0.000846243
0.000985846
0.00105028
0.00103369
0.000820794
0.00106004
0.000751666
0.000889986
0.00105741
0.000652229
0.00103006
0.00110299
0.00105295
0.00116816
0.00106207
0.00115046
0.00082109
0.000914988
0.0009244
0.00100475
0.0011278
0.00137297
0.00130155
0.000830835
0.000892148
0.000840113
0.00073235
0.00083919
0.000899581
0.000892198
0.00120428
0.000784172
0.000906171
0.00091101
0.00119988
0.00109845
0.00113345
0.00110658
0.000820144
0.000874323
0.000774122
0.000864795
0.000985392
0.000994883
0.000928602
0.000903691
0.00110277
0.000888813
0.000821832
0.00105036
0.00100493
0.000884265
0.000811435
0.00155697
0.00138306
0.00109872
0.00122682
0.000922928
0.00101999
0.00114136
0.000953663
0.00125296
0.000716063
0.000736601
0.000719441
0.000952244
0.0010918
0.00105519
0.00104977
0.00121005
0.000966095
0.000933886
0.000978814
0.000930508
0.00103074
0.00122828
0.00103459
0.000902093
0.00145645
0.00120224
0.000839763
0.0013031
0.00125086
0.00114684
0.000932945
0.000824783
0.00106966
0.000869171
0.000873352
0.00104158
0.00122702
0.00131025
0.000828111
0.00130898
0.000843708
0.000793573
0.000779105
0.00100245
0.00101034
0.000994749
0.000997007
0.0010906
0.00105866
0.00100123
0.000832348
0.00108274
0.00115551
0.000970336
0.00132375
0.00103741
0.00154108
0.00109977
0.00104416
0.000667109
0.000646968
0.000901628
0.000923486
0.000838681
0.000848022
0.000823243
0.000936928
0.000792564
0.00090096
0.000984713
0.00092502
0.00113403
0.00098553
0.0010537
0.000739458
0.000600092
0.00104248
0.00094301
0.000762755
0.00101555
0.000797376
0.000949761
0.000980311
0.000827457
0.000835874
0.00125206
0.000831478
0.00126932
0.00081483
0.00107451
0.00071019
0.000752576
0.00102032
0.00100687
0.0008764
0.000872041
0.000902629
0.000945458
0.000829798
0.00108733
0.000777422
0.00102383
0.000889822
0.000986281
0.000966588
0.000792434
0.00112023
0.000859923
0.000685816
0.000736483
0.0010468
0.00137628
0.00116356
0.0012073
0.00115946
0.000906518
0.000924637
0.00134012
0.00089783
0.000878871
0.0010061
0.000869519
0.00100345
0.000974317
0.000888868
0.000879132
0.000933586
0.000783336
0.000836372
0.000935948
0.000790603
0.000961841
0.000890618
0.000854175
0.00110141
0.00112415
0.00107575
0.000890544
0.00093814
0.00128875
0.00114223
0.00122455
0.00130015
0.0011007
0.00109255
0.00100587
0.000986023
0.0010012
0.00109642
0.000813681
0.000857451
0.000769952
0.000877885
0.000927378
0.00078606
0.000867427
0.000871316
0.0010252
0.000843576
0.000934162
0.000900487
0.000898829
0.000915866
0.000898046
0.000684714
0.00108555
0.000890818
0.000806372
0.000948085
0.000806876
0.00101803
0.000905755
0.000842339
0.0008556
0.00115987
0.000822485
0.000917662
0.000807244
0.000979581
0.000793002
0.00107591
0.000818728
0.00106377
0.000963747
0.000855752
0.00128437
0.00110907
0.000877257
0.000790123
0.000694158
0.000641854
0.000678112
0.000855713
0.00218088
0.000925914
0.000807714
0.000690099
0.00117447
0.000817928
0.000910189
0.000915515
0.000705913
0.000854322
0.000904559
0.000619882
0.00105441
0.00114382
0.00120225
0.00117304
0.000901565
0.000867445
0.000810323
0.000809444
0.000864228
0.000837886
0.00089997
0.000977526
0.00110034
0.00104839
0.00113685
0.00101793
0.00135852
0.00136315
0.000794793
0.000970071
0.000824036
0.000854687
0.00127651
0.00101263
0.000732239
0.00115376
0.00114616
0.000798845
0.00111212
0.00130813
0.000950009
0.00127196
0.00130488
0.000687367
0.000846533
0.000948925
0.0011076
0.000708377
0.000959343
0.00105024
0.000990752
0.00119238
0.00106633
0.00100107
0.000891426
0.00122948
0.00113431
0.000896918
0.000908322
0.000938842
0.000965991
0.00090334
0.000864443
0.00087511
0.00108388
0.00121676
0.00104665
0.000994863
0.00112604
0.000832856
0.00112952
0.000900604
0.000908435
0.000785855
0.00123597
0.00089596
0.00109087
0.00131424
0.00104858
0.000904637
0.00106679
0.0012277
0.0010501
0.000854012
0.000815263
0.00086433
0.000839107
0.000878148
0.000918551
0.00113123
0.00104283
0.00100238
0.000767192
0.000729694
0.000857904
0.000782985
0.000962364
0.00085827
0.00102659
0.00128589
0.00122204
0.00104085
0.00118553
0.000796705
0.000982805
0.000860826
0.000852225
0.000987032
0.00118562
0.00101336
0.00117021
0.00135045
0.00102151
0.000901128
0.00097287
0.000982133
0.00103334
0.00101548
0.000980753
0.000889611
0.00152552
0.00113724
0.00108685
0.000884384
0.000826024
0.000970041
0.000891568
0.00122505
0.000827664
0.00103032
0.00131255
0.000935685
0.000810888
0.000675226
0.00139391
0.000781471
0.00084624
0.00116971
0.00107568
0.00103892
0.00110464
0.00120951
0.00122119
0.000775228
0.000894629
0.00113418
0.000790428
0.00147044
0.00132439
0.00108031
0.000783698
0.000991034
0.000969356
0.000908194
0.000919419
0.000876477
0.000949822
0.00140092
0.000754338
0.00110877
0.000759177
0.00100903
0.000872534
0.000985288
0.000957395
0.00106986
0.00108138
0.000915045
0.00091528
0.00084694
0.000995364
0.00105644
0.00138203
0.00117437
0.000960836
0.00105554
0.000701204
0.000732471
0.000787262
0.000950204
0.000922895
0.00106688
0.000851037
0.000932946
0.000931012
0.00069553
0.000708044
0.00106327
0.00138316
0.00105011
0.000983472
0.00105248
0.0011212
0.00119403
0.00117129
0.00114832
0.000919315
0.00117762
0.00118017
0.000973186
0.00103474
0.000842405
0.000886419
0.00105807
0.000978064
0.000884909
0.000887008
0.00102681
0.000756451
0.000811218
0.00106463
0.000986465
0.00065437
0.000980746
0.00106422
0.00123963
0.001022
0.000874535
0.00103329
0.00122823
0.00105629
0.00125136
0.00126172
0.00120849
0.0010349
0.00111981
0.000975075
0.00086826
0.00122628
0.000896033
0.000898642
0.000776247
0.00102347
0.0008252
0.000824611
0.000970316
0.000969237
0.00131175
0.0011432
0.00104274
0.000841847
0.000773042
0.000907702
0.000730975
0.00115001
0.000941985
0.000854476
0.00104631
0.00105149
0.00094591
0.00124616
0.00164719
0.00138312
0.000986413
0.00103767
0.0010239
0.00096971
0.000958575
0.000793059
0.000878344
0.00064987
0.00109576
0.000842599
0.00088207
0.000884788
0.000949888
0.00131254
0.00124545
0.000908496
0.00121999
0.00119924
0.00110957
0.00108053
0.000846464
0.00109832
0.00112132
0.00110021
0.00093216
0.00117659
0.00120744
0.00120911
0.000914005
0.000983178
0.00102454
0.00124365
0.000894095
0.00110616
0.000871028
0.000778754
0.000782664
0.000895044
0.00121532
0.000968239
0.000954156
0.000763035
0.00108037
0.000873479
0.0008717
0.000860742
0.000888183
0.000827931
0.00110497
0.000897181
0.00105302
0.00110296
0.00129564
0.000754157
0.000826075
0.000967316
0.000643365
0.000988777
0.00103918
0.000853629
0.00114527
0.00095187
0.00102953
0.000966156
0.000939362
0.00104649
0.000780348
0.000816708
0.00121938
0.00152868
0.000974998
0.000820471
0.00104688
0.000728661
0.00111604
0.00117113
0.00121158
0.000878508
0.00119069
0.00104513
0.00105266
0.00105062
0.0010363
0.00115328
0.00123727
0.000828165
0.000889303
0.00104575
0.00123098
0.000893937
0.00103471
0.000965139
0.0008625
0.0007152
0.000771741
0.000786546
0.000854248
0.000806165
0.00090832
0.00114772
0.00118941
0.000959614
0.00084603
0.000848348
0.00116917
0.000882381
0.000921777
0.00094871
0.00122408
0.00091588
0.00086699
0.000989853
0.00122608
0.00114448
0.00109435
0.00114292
0.00115211
0.000854836
0.0011549
0.00105306
0.00115903
0.00110196
0.00092889
0.00108116
0.000978703
0.00108178
0.000895209
0.000739976
0.00072988
0.000886813
0.000872081
0.00118664
0.000794621
0.000845034
0.00172452
0.000932353
0.00089526
0.0008612
0.000850875
0.000835161
0.00112177
0.00113915
0.00166192
0.000986734
0.0016317
0.00111464
0.00108701
0.00113558
0.00124659
0.00105027
0.000901745
0.000906934
0.0011824
0.00096894
0.000851718
0.00104902
0.000853357
0.00115935
0.000969973
0.000937675
0.00130156
0.000929465
0.000870574
0.000858302
0.000927963
0.00108563
0.00111447
0.00122909
0.000973689
0.000961449
0.00119897
0.00109971
0.00114203
0.00114732
0.000854143
0.000888219
0.00085248
0.000813995
0.000997114
0.00105247
0.00122919
0.00110006
0.00104794
0.00115842
0.00121116
0.00114183
0.00124054
0.0007849
0.00104453
0.000717374
0.000849404
0.00104266
0.000828058
0.000845653
0.00100604
0.000969343
0.00077674
0.000860498
0.00083131
0.00112654
0.000781599
0.000744379
0.0013038
0.00106109
0.000980958
0.00118873
0.000773089
0.000715518
0.00100928
0.000973848
0.00114171
0.000782827
0.000764781
0.000906693
0.00128998
0.00127218
0.000839907
0.000803623
0.000718683
0.000990436
0.00101775
0.0009635
0.00083658
0.000852233
0.000848619
0.000784379
0.00122722
0.00110316
0.0013552
0.00081496
0.00144594
0.00116279
0.000934291
0.00097289
0.000928322
0.00100333
0.00142309
0.00105123
0.000979716
0.00129206
0.000867983
0.0010499
0.000847704
0.000866199
0.000855337
0.000788257
0.000869919
0.000773867
0.00129532
0.00112817
0.00123103
0.00112507
0.00119669
0.00177326
0.000908973
0.0010596
0.000871045
0.0012074
0.00101053
0.000916402
0.00115747
0.00117742
0.000936622
0.000833642
0.00101076
0.000924116
0.000829379
0.000901581
0.000987759
0.00118866
0.00124281
0.000910846
0.000717622
0.000778133
0.00113521
0.00100741
0.000873315
0.00125181
0.00134474
0.00106027
0.0010696
0.00111092
0.000741971
0.000952631
0.000805198
0.000894537
0.00122399
0.000855373
0.00101085
0.0010329
0.00111422
0.000890794
0.000813646
0.00106164
0.00116571
0.00125936
0.00121159
0.00100392
0.00102323
0.000964203
0.00103554
0.00113137
0.00117359
0.000951576
0.00109625
0.000731859
0.00125337
0.00124147
0.00128546
0.00089587
0.000936284
0.000776809
0.000907979
0.000837793
0.000832199
0.00100629
0.000703884
0.000824126
0.00113341
0.000800174
0.000810011
0.00137708
0.0011498
0.000802686
0.000955558
0.000861975
0.000812977
0.00121706
0.000856087
0.000783394
0.00105881
0.000905538
0.00100751
0.00124462
0.000710932
0.00105517
0.00116937
0.00116012
0.00106693
0.0013593
0.000828293
0.000771071
0.00121567
0.00114597
0.00102895
0.00128615
0.00106139
0.000911276
0.000823371
0.000898285
0.00119228
0.000858904
0.00103259
0.0007452
0.000949993
0.00116382
0.000804442
0.000911735
0.000900374
0.000918021
0.000919528
0.00101959
0.000793177
0.00124459
0.000991503
0.000917833
0.000924203
0.000989087
0.00116499
0.000809108
0.000834252
0.00103384
0.00105566
0.000951037
0.00106012
0.000970497
0.000964299
0.000717323
0.00100387
0.00104331
0.00117335
0.00111017
0.00101137
0.00116531
0.00105882
0.000857287
0.0013368
0.00103501
0.000797789
0.000796419
0.000951584
0.000970431
0.00131714
0.000939463
0.000935162
0.000933751
0.00112961
0.00142433
0.001015
0.00108868
0.000835212
0.000914059
0.0010569
0.00166124
0.000854835
0.000670531
0.00090035
0.00108714
0.00113791
0.00120053
0.000785276
0.000954346
0.00092965
0.00153628
0.00116172
0.00108323
0.000962078
0.00115736
0.000803518
0.00105594
0.000820867
0.00120297
0.00113565
0.000966749
0.000990309
0.00083512
0.000931887
0.00145662
0.00086997
0.00102277
0.000676713
0.000696489
0.000969358
0.00117271
0.00118173
0.00110235
0.000824248
0.000907586
0.00102273
0.00111007
0.000884952
0.00118249
0.00118333
0.000917852
0.000828025
0.000815321