/*--------------------------------*- C++ -*----------------------------------*\
| =========                 |                                                 |
| \\      /  F ield         | OpenFOAM: The Open Source CFD Toolbox           |
|  \\    /   O peration     | Version:  2212                                  |
|   \\  /    A nd           | Website:  www.openfoam.com                      |
|    \\/     M anipulation  |                                                 |
\*---------------------------------------------------------------------------*/
FoamFile
{
    version     2.0;
    format      ascii;
    arch        "LSB;label=32;scalar=64";
    class       volScalarField;
    location    "10";
    object      p;
}
// * * * * * * * * * * * * * * * * * * * * * * * * * * * * * * * * * * * * * //

dimensions      [0 2 -2 0 0 0 0];

internalField   nonuniform List<scalar> 
305690
(
-213.502
-181.491
-52.0245
-207.134
-128.785
-208.472
-112.339
-136.001
-116.457
-156.108
-114.102
-89.9843
-132.809
-139.681
-76.3294
-140.27
-190.115
-14.9693
-177.098
-148.742
-58.2768
-149.637
-112.614
-82.6509
-175.11
-131.122
-169.516
-49.4362
-109.886
-159.611
-124.315
-158.529
-186.941
-182.957
-154.212
-154.746
-58.6617
-175.711
-44.3564
-184.099
-187.295
-42.9866
-168.133
-157.094
-178.153
-183.129
-86.6218
-94.1198
-161.751
-116.313
-101.169
-93.0267
-34.9811
-207.216
-194.293
-177.932
-132.827
-25.2821
-128.912
-111.609
-198.542
-7.34372
-158.331
-54.894
-174.462
-180.104
-150.542
-108.475
-155.478
-116.492
-167.633
-148.505
-220.211
-160.665
-169.872
-87.4964
-112.32
-154.002
-82.1629
-182.738
-119.768
-98.1606
-56.8672
-182.291
-93.6665
-96.0841
-139.374
-30.3382
-40.9789
-135.154
-98.4437
-132.727
-148.885
-89.5883
-102.408
-79.0222
-65.728
-63.9722
-17.8876
-16.2515
-36.7544
-160.63
-83.3268
-61.6905
-103.749
-95.8077
-164.494
-163.714
-89.42
-57.0803
-102.824
-103.394
-146.861
-167.503
-166.914
-176.708
-90.6
-121.652
-157.286
-65.4996
-85.3777
-160.897
-116.284
-13.895
-147.11
-148.528
-160.709
-31.3227
-164.459
-73.067
-32.1425
-45.7314
-140.999
-21.5619
-108.159
-189.445
-148.21
-100.087
-152.16
-152.503
-177.058
-143.564
-152.553
-98.0702
-171.282
-137.497
-79.0312
-69.8988
-188.402
-94.53
-70.9348
-114.433
-134.01
-188.378
-63.5307
-217.372
-138.181
-33.3299
-46.846
-131.671
-130.094
-119.761
-111.329
-159.761
-116.363
-148.393
-157.815
-100.721
-0.0810093
-146.298
-145.054
-148.911
-166.437
-155.918
-119.868
-145.088
-90.2869
-138.593
-173.974
-64.9418
-51.9689
-81.678
-23.4227
-23.4188
-22.9499
-146.834
-122.698
-138.208
-115.316
-109.837
-102.877
-109.597
-94.2584
-166.678
-67.1833
-64.6374
-37.5372
-67.0953
-97.2728
-104.093
-165.203
-90.3737
-149.455
-152.953
-17.7111
-58.9011
-164.907
-158.047
-119.388
-167.338
-125.255
-50.1502
-141.58
-138.333
-63.7929
-66.5015
-92.4971
-145.615
-175.501
-63.2615
-148.99
-157.514
-121.825
-110.542
-188.959
-181.586
-61.7563
-135.761
-127.656
-112.326
-114.796
-141.369
-158.262
-160.82
-157.703
-156.312
-153.265
-191.381
-228.235
-256.741
-213.262
-172.066
-77.884
-100.601
-15.6307
-139.919
-109.19
-27.7871
-190.829
-41.1365
-152.115
-130.208
-224.336
-116.192
-120.684
-137.537
-110.007
-183.869
-174.477
-110.575
-132.178
-154.842
-117.226
-105.117
-126.366
-151.046
-139.121
-202.285
-124.061
-151.003
-160.244
-218.499
-189.823
-210.807
-80.2399
-142.982
-198.782
-162.863
-48.9304
-133.342
-153.506
-120.088
-56.4176
-147.063
-121.535
-113.716
-162.906
-94.1947
-24.0937
-197.321
-198.508
-127.867
-94.9185
-158.171
-153.112
-31.4261
-58.1271
-117.47
-121.213
-156.751
-152.005
-91.8718
-120.57
-129.316
-115.461
-154.028
-145.032
-128.217
-80.2974
-72.0307
-143.334
-22.5084
-63.4107
-94.4171
-124.135
-177.907
-63.531
-55.273
-81.6825
-120.938
-159.53
-145.381
-159.933
-93.3981
-95.961
-61.1529
-142.047
-126.697
-191.559
-170.907
-98.9221
-190.267
-66.9689
-42.4133
-223.419
-100.546
-155.894
-106.652
-128.436
-140.873
-72.9733
-90.2421
-54.1605
-144.467
-177.356
-22.6366
-75.5883
-126.804
-191.436
-110.434
-166.594
-33.1058
-105.632
-120.382
-185.01
-111.436
-146.689
-147.072
-7.118
-185.353
-152.726
-148.538
-148.334
-268.331
-142.292
-111.658
-91.1326
-217.928
-230.869
-154.777
-144.467
-196.807
-207.326
-126.073
-145.303
-127.843
-128.409
-39.9243
-112.657
-158.899
-151.722
-106.527
-106.197
-141.766
-137.352
-32.1212
-110.956
-271.655
-107.426
-120.608
-137.58
-139.351
-97.4735
-60.0713
-129.413
-134.562
-69.3279
-74.5752
-11.6669
-149.543
-154.09
-11.0971
-149.924
-67.6055
-80.4602
-125.451
-115.003
-92.4137
-52.5443
-161.129
-46.9085
-136.796
-141.575
-150.897
-137.196
-119.673
-73.3344
-131.468
-140.589
-124.08
-162.061
-154.558
-198.632
-99.7882
-74.8693
-71.4102
-127.519
-197.052
-199.661
-151.463
-104.083
-148.181
-132.251
-117.131
-102.604
-168.448
-181.381
-152.12
-6.76077
-153.305
-103.624
-79.1113
-89.8784
-88.0085
-98.2246
-198.492
-196.298
-120.819
-117.232
-104.454
-122.138
-133.846
-41.1724
-141.595
-98.6997
-98.665
-164.38
-188.034
-58.5618
-43.9501
-79.605
-185.706
-173.633
-176.852
-62.1707
-114.111
-134.303
-141.245
-99.4087
-109.506
-131.203
-178.639
-148.222
-26.5488
-139.896
-87.1552
-114.109
-59.4189
-145.677
-84.7105
-197.969
-141.597
-157.924
-139.479
-77.7708
-57.6969
-165.722
-187.342
-140.552
-179.599
-28.6734
-95.8684
-191.552
-206.872
-77.0371
-68.2075
-99.004
-132.491
-57.2949
-162.627
-52.3994
-119.071
-67.6818
-177.048
-217.202
-95.2554
-145.1
-136.555
-41.3643
-171.075
-17.3867
-74.4403
-130.749
-129.171
-126.995
-75.6142
-186.452
-175.025
-55.8176
-136.67
-120.056
-127.742
-109.723
-99.8836
-155.04
-65.1758
-71.0911
-104.019
-121.197
-40.8877
-126.123
-146.047
-165.992
-85.5273
-94.3589
-2.76087
-81.3622
-129.616
-104.519
-101.312
-107.163
-113.32
-158.534
-158.74
-190.375
-139.714
-144.865
-175.688
-147.637
-155.905
-208.012
-139.636
-147.47
-211.031
-146.469
-175.79
-81.6395
-179.711
-108.064
-177.092
-133.011
-135.563
-79.1956
-100.47
-179.056
-9.98733
-101.007
-140.063
-25.7564
-19.1309
-110.74
-95.7836
-95.4828
-107.654
-154.421
-110.774
-56.7344
-221.233
-151.867
-143.178
-213.478
-66.2778
-65.536
-165.142
-128.477
-109.1
-200.142
-28.3965
-117.595
-144.866
-163.76
-95.8896
-106.28
-139.3
-107.626
-130.442
-44.1768
-85.8468
-175.728
-85.075
-119.724
-57.3036
-142.425
-124.602
-81.8015
-84.0815
-107.905
-112.534
-136.848
-142.482
-108.896
-118.984
-155.209
-144.345
-74.9313
-123.593
-131.59
-192.565
-81.1943
-88.9636
-88.9217
-28.3733
-94.9355
-105.161
-174.665
-183.757
-155.453
-155.084
-3.90353
-179.385
-225.798
-14.8665
-136.759
-149.332
-131.314
-113.925
-124.19
-160.046
-30.3993
-71.6103
-131.833
-113.165
-80.2546
-167.222
-95.5191
-69.1683
-130.051
-255.849
-144.24
-124.845
-166.49
-136.167
-59.6256
-106.422
-134.723
-173.312
-140.816
-155.575
-72.085
-132.346
-150.621
-149.527
-116.714
-138.789
-149.153
-130.309
-221.298
-107.867
-138.02
-131.96
-138.87
-165.881
-97.2938
-10.5015
-9.26893
-129.997
-145.344
-148.427
-117.349
-120.237
-139.127
-154.046
-209.56
-59.3618
-58.0275
-114.258
-124.036
-121.322
-188.488
-106.856
-117.175
-151.229
-122.985
-169.422
-146.265
-119.595
-123.935
-123.963
-172.425
-73.1235
-106.278
-157.353
-109.955
-122.121
-183.549
-24.7185
-183.912
-18.363
-217.975
-92.5902
-107.742
-185.196
-133.694
-188.425
-98.3562
-184.118
-179.107
-127.752
-242.156
-265.21
-164.494
-3.70985
-115.805
-131.994
-120.097
-52.1541
-30.8966
-155.27
-164.142
-63.8111
-153.876
-19.7422
-153.347
-127.587
-150.498
-44.3984
-199.129
-129.227
-31.8113
-24.6537
-103.548
-106.082
-52.892
-46.9883
-153.478
-144.282
-233.833
-50.2161
-127.512
-138.704
-62.641
-13.7382
-132.579
-159.831
-125.942
-163.655
-5.83063
-101.888
-128.552
-69.7091
-65.8138
-95.1228
-112.78
-121.208
-174.078
-177.45
-174.611
-168.096
-69.0297
-27.1863
-12.7633
-15.4574
-123.425
-168.965
-157.881
-89.3506
-84.2504
-98.7926
-151.582
-151.662
-174.728
-126.127
-133.196
-146.35
-13.5061
-95.6272
-115.798
-97.0795
-98.244
-10.9041
-59.9637
-146.335
-180.385
-169.025
-114.003
-137.739
-169.956
-28.1126
-91.5113
-156.264
-133.989
-172.34
-127.363
-67.535
-185.572
-140.707
-117.048
-143.03
-51.4888
-104.384
-156.199
-115.369
-129.524
-135.702
-171.716
-95.5831
-181.53
-140.469
-135.218
-201.096
-185.372
-58.1146
-99.1946
-131.571
-204.427
-124.029
-146.828
-125.899
-121.503
-93.3427
-85.7109
-185.89
-114.009
-185.117
-110.186
-69.8282
-149.224
-153.225
-12.719
-31.781
-127.455
-152.925
-138.269
-136.982
-70.9819
-94.0385
-18.1333
-17.8243
-99.9802
-134.828
-44.0987
-112.223
-65.227
-129.256
-181.538
-186.303
-159.309
-151.476
-182.209
-217.834
-111.525
-158.847
-117.445
-190.181
-143.042
-87.2587
-189.844
-13.3371
-119.771
-217.924
-69.827
-93.9842
-62.9071
-102.658
-74.6502
-124.315
-116.703
-164.331
-101.084
-101.513
-194.502
-178.736
-149.688
-187.201
-106.233
-145.189
-100.904
-181.531
-136.033
-48.7029
-111.668
-150.235
-112.222
-10.1586
-148.32
-175.811
-84.9803
-153.689
-82.6128
-72.0279
-68.0871
-201.316
-152.602
-159.376
-165.676
-131.487
-58.9551
-109.998
-174.153
-137.412
-167.428
-92.6854
-144.031
-61.5922
-59.5026
-58.4032
-110.122
-182.815
-108.272
-132.398
-173.289
-83.3574
-179.175
-171.448
-133.715
-162.497
-144.672
-52.2495
-54.5257
-146.455
-127.217
-83.8004
-83.5665
-64.472
-49.0682
-70.1239
-211.559
-114.869
-175.247
-63.8746
-76.128
-72.2238
-165.111
-183.148
-142.038
-138.033
-73.0383
-110.514
-113.218
-83.5142
-68.932
-31.4857
-160.824
-85.5346
-147.365
-114.886
-12.2385
-172.048
-214.69
-133.279
-99.5394
-110.585
-89.4212
-59.4671
-88.7888
-143.407
-122.833
-106.824
-176.757
-53.6685
-122.633
-105.644
-146.151
-161.316
-136.274
-90.4923
-144.897
-90.4871
-151.11
-129.171
-94.7269
-96.606
-167.189
-143.478
-92.897
-84.271
-85.1659
-102.417
-102.115
-73.4008
-7.6724
-64.352
-122.31
-142.966
-141.393
-87.1246
-135.033
-27.6688
-149.766
-83.9598
-88.2018
-190.067
-96.7903
-114.423
-118.311
-95.0643
-113.405
-137.813
-142.735
-165.407
-71.9874
-118.754
-92.6402
-115.208
-56.5598
-76.4856
-181.005
-125.458
-135.819
-110.733
-44.4598
-111.799
-88.7067
-63.2917
-166.558
-41.597
-40.6861
-89.4477
-125.412
-182.578
-39.4848
-191.889
-5.27933
-19.3099
-155.023
-138.637
-137.823
2.66415
-126.979
-98.2128
-143.882
-59.0681
-140.654
-119.878
-170.43
-90.1429
-97.1888
-144.501
-187.851
-193.233
-174.439
-31.3929
-153.435
-147.849
-177.852
-75.6298
-124.654
-58.736
-4.40548
-115.552
-69.6802
-97.2786
-9.97312
-129.577
-113.261
-118.757
-63.095
-74.7482
-94.5626
-181.789
-127.599
-174.588
-101.545
-109.707
-107.753
-49.0928
-67.4708
-104.414
-143.092
-179.978
-7.44906
-207.667
-137.848
-146.289
-172.415
-16.7781
-149.058
-70.6299
-53.0417
-178.648
-154.578
-107.609
-117.095
-130.135
-133.086
-102.689
-111.933
-110.993
-168.127
-160.22
-137.755
-107.308
-109.457
-118.001
-138.174
-142.335
-165.799
-128.556
-113.157
-172.724
-18.5315
-76.8154
-105.35
-153.416
-132.796
-112.194
-178.343
-152.34
-89.7553
-82.8416
-148.165
-32.5261
-172.668
-138.998
-203.049
-94.108
-224.081
-216.31
-162.005
-148.115
-84.8902
-183.187
-47.8198
-170.453
-53.6937
-41.3946
-168.512
-123.581
-211.795
-71.0649
-123.938
-130.013
-99.1836
-196.081
-55.7051
-143.371
-132.967
-89.6442
-86.9835
-123.198
-167.881
-143.896
-214.994
-69.3582
-86.0004
-162.995
-150.25
-133.165
-112.8
-112.573
-119.486
-205.969
-198.125
-126.184
-119.39
-108.196
-155.759
-124.93
-84.5832
-21.5724
-135.473
-192.68
-111.426
-182.147
-203.441
-184.812
-175.753
-169.786
-135.168
-40.5093
-143.915
-39.4861
-97.5888
-92.2041
-147.987
-140.466
-206.24
-111.333
-138.338
-131.624
-157.469
-174.686
-191.447
-139.267
-112.307
-32.5948
-146.738
-134.369
-51.1822
-130.854
-117.181
-140.508
-130.57
-126.364
-150.446
-178.12
-95.0428
-86.1587
-75.7392
-74.8562
-55.8896
-115.31
-78.7608
-93.986
-169.672
-141.331
-39.1176
-61.6751
-150.06
-81.3894
-123.588
-224.662
-87.9445
-120.839
-117.08
-121.706
-112.397
-48.2854
-184.086
-131.888
-204.246
-175.871
-127.559
-154.277
-102.661
-195.338
-105.611
-115.936
-13.6987
-100.848
-208.864
-107.148
-119.541
-55.7262
-18.5791
-143.39
-185.558
-21.9213
-7.42726
-162.677
-104.496
-29.9503
-109.578
-149.057
-135.532
-80.2764
-146.919
-115.885
-114.967
-107.973
-116.775
-162.057
-104.451
-156.935
-125.737
-146.51
-197.532
-174.962
-204.854
-119.839
-231.332
-156.447
-146.995
-56.956
-32.7024
-246.675
-122.329
-33.0076
-113.727
-113.031
-152.582
-114.544
-98.7979
-208.071
-198.041
-97.0013
-174.604
-139.908
-129.334
-40.578
-180.186
-123.404
-128.394
-99.9094
-177.448
-207.725
-106.593
-109.301
-165.324
-134.344
-84.5289
-267.323
-200.442
-95.9913
-13.2381
-10.5189
-81.8226
-178.328
-20.1238
-212.065
-150.699
-139.521
-188.897
-62.2919
-145.529
-96.3608
-222.008
-16.7594
6.78497
-175.237
-209.861
-125.444
-97.5297
-132.297
-161.476
-15.9013
-20.2084
-142.134
-146.522
-106.18
-167.605
-182.626
-16.5091
-213.47
-174.31
-161.406
-139.869
-19.3828
-18.1687
-124.473
-83.9768
-153.511
-114.56
-116.517
-175.215
-114.594
-120.31
-132.167
-149.555
-153.171
-188.477
-171.878
-118.823
-153.02
-141.274
-123.578
-121.206
-178.376
-164.574
-104.939
-100.132
-131.334
-15.9851
-128.154
-148.957
-161.576
-115.471
-121.774
-173.216
-64.6847
-206.841
-132.574
-68.3458
-131.557
-13.1098
17.443
-149.728
-82.0513
-77.6468
-117.707
-114.829
-15.3151
-95.8508
-73.871
-153.259
-94.5251
-126.344
-161.596
-51.2173
-76.9595
-116.386
-128.256
-122.011
-85.2849
-231.929
-145.42
-135.215
-153.756
-45.3023
-111.356
-157.371
-18.4184
-154.296
-124.314
-123.362
-72.1319
-124.959
-176.466
-167.207
-171.562
-27.0539
-57.7316
-276.899
-120.584
-121.522
-30.1188
-80.9387
-169.926
-123.887
-74.0345
-207.149
-102.645
-74.1946
-180.91
-118.93
-233.343
-4.88855
-24.0134
-159.062
-195.586
-166.369
-85.6334
-100.094
-8.80989
-132.107
-117.709
-81.4643
-190.601
-84.843
-91.0742
-90.6762
-149.239
-163.003
-178.082
-130.336
-192.549
-87.5513
-137.339
-137.282
-185.742
-133.864
-168.855
-110.09
-110.876
-248.989
-196.966
-32.6382
-39.4533
-31.358
-14.7306
-56.1024
-155.636
-193.351
-89.7836
-31.1977
-114.932
-174.543
-152.325
-142.154
-37.6936
-100.57
-159.024
-88.0208
-80.5189
-75.6219
-147.939
-151.052
-42.2134
-71.6101
-141.266
-153.551
0.852245
-13.7391
-101.277
-168.64
-169.141
-48.3382
-132.718
-130.232
-172.289
-80.4913
-8.74662
-116.242
-122.23
-176.73
-18.9336
-5.81415
-156.17
-148.383
-128.768
-44.856
-160.809
-131.502
-61.3145
-159.364
-173.692
-189.799
-134.409
-95.7736
-74.4804
-186.015
-90.8113
-93.913
-147.013
-110.324
-160.15
-134.81
-105.329
-156.565
-104.842
-83.2273
-79.5083
-138.987
-147.539
-195.054
-64.1778
-61.855
-160.977
-118.148
-13.5195
-85.2282
-103.025
-138.202
-147.312
-78.3472
-88.258
-90.9307
-127.99
-160.314
-127.318
-58.9714
-67.5908
-10.52
-14.4533
-85.6872
-19.9265
-104.525
-159.399
-168.759
-102.056
-167.892
-124.611
-171.042
-149.311
-109.618
-143.226
-128.244
-54.5593
-80.018
-82.8399
-223.995
-200.597
-167.547
-213.938
-212.478
-148.326
-165.495
-121.31
-138.352
-142.51
-163.661
-178.083
-188.226
-149.649
-135.603
-136.196
-109.245
-156.75
-118.989
-155.153
-137.316
-153.027
-132.93
-148.833
-164.049
-23.778
-171.513
-169.041
-155.785
-70.8929
-167.024
-114.314
-140.993
-108.006
-141.748
-50.0263
-109.171
-122.532
-180.601
-182.66
-117.395
-136.413
-170.142
-177.499
-136.862
-56.8021
-87.38
-150.002
-72.7214
-79.204
-77.7895
-88.3717
-39.6668
-47.9113
-149.993
-166.92
-142.573
-231.21
-205.909
-90.8182
-131.254
-175.572
-153.118
-121.354
-74.3381
-92.8292
-84.5222
-128.494
-183.72
-118.313
-144.8
-155.419
-102.865
-147.265
-109.55
-147.779
-128.565
-151.625
-153.248
-75.7839
-117.505
-195.277
-169.966
-156.523
-127.831
-157.903
-103.447
-74.8521
-83.021
-205.338
-178.585
-132.637
-137.783
-93.2954
-95.2437
-105.545
-74.5992
-94.3214
-153.611
-149.498
-152.879
-123.346
-108.549
-101.22
-136.682
-218.959
-6.43546
-53.9054
-22.4043
-130.636
-132.048
-131.745
-147.988
-140.046
-259.574
-201.034
-116.913
-181.867
-41.4114
-51.9532
-57.0334
-162.393
-94.6193
-65.4076
-160.207
-100.959
-257.438
-156.304
-132.901
-130.705
-87.107
-219.74
-125.81
-149.694
-2.64859
-16.6098
-104.063
-207.992
-157.265
-192.291
-168.634
-131.005
-127.764
-138.067
-60.7849
-117.664
-142.159
-152.009
-63.9591
-100.388
-101.836
-132.119
-43.1719
-43.4027
-136.008
-123.512
-91.9244
-130.146
-97.782
-11.9434
-107.52
-75.8019
-9.30926
-171.717
-150.723
-148.666
-59.9384
-148.673
-149.938
-115.143
-97.6331
-171.898
-142.127
-131.173
-128.681
-209.146
-93.1808
-202.317
-14.0418
-115.362
-168.654
-165.228
-107.518
-12.9878
-56.653
-173.765
-141.256
-101.068
-183.844
-83.3558
-153.109
-163.851
-39.0724
-100.7
-113.737
-106.76
-144.002
-118.499
-143.073
-106.57
-44.0271
-42.4977
-52.4933
-201.268
-88.7103
-69.6768
-99.9763
-138.232
-118.455
-46.3332
-118.686
-175.898
-172.482
-121.22
-122.554
-122.934
-49.3206
-129.992
-97.7865
-152.787
-162.42
-168.596
-73.5001
-24.54
-89.2111
-104.015
-95.3592
-37.7035
-32.2949
-149.419
-129.597
-118.917
-166.854
-138.123
-159.507
-70.7529
-188.461
-23.9655
-75.1468
-104.626
-95.3165
-167.84
-21.0137
-101.337
-115.998
-3.88374
-103.07
-161.009
-98.0046
-11.6359
-143.023
-111.055
-108.656
-44.116
-106.261
-133.794
-80.1941
-104.217
-70.9253
-116.462
-119.757
-167.79
-146.724
-151.437
-141.931
-16.7844
-142.055
-96.9
-32.7718
-42.441
-98.6238
-101.586
-123.753
-165.253
-118.643
-120.944
-124.826
-179.144
-102.446
-152.128
-49.6883
-113.274
-95.1456
-77.7059
-161.493
-98.9499
-132.512
-232.231
-148.573
-103.871
-89.2075
-93.5441
-137.432
-138.009
-113.486
-154.549
-165.806
-155.015
-190.033
-192.377
-97.7272
-125.693
-117.514
-128.518
-94.9506
-120.597
-87.454
-174.408
-158.672
-110.084
-23.8883
-94.6416
-161.838
-49.2609
-91.3442
-89.649
-81.9826
-278.936
-38.4516
-168.996
-82.4585
-86.6293
-73.7037
-177.278
-105.466
-68.6158
-173.263
-148.838
-159.899
-105.712
-70.3016
-116.202
-153.589
-154.913
-111.966
-119.614
-130.382
-64.4662
-176.52
-154.282
-162.768
-54.4954
-19.754
-134.354
-170.56
-184.773
-162.666
-88.3018
-107.02
-183.819
-17.4524
-40.4652
-42.7024
-89.4972
-158.451
-65.8618
-136.293
-191.565
-155.212
-78.5556
-193.251
-163.901
-53.7902
-110.438
-21.5457
-155.459
-46.5192
-54.7366
-105.063
-82.2267
-92.3638
-81.1669
-77.9411
-156.331
-51.0863
-84.186
-122.664
-154.581
-146.322
-133.588
-156.394
-12.1117
-170.559
-162.613
-114.658
-115.377
-84.0343
-80.6528
-189.297
-35.623
-30.2922
-106.204
-94.4969
-162.536
-72.0966
-139.468
-145.106
-63.3727
-137.283
-7.43286
-135.357
-174.849
-76.6155
-256.453
-19.409
-75.779
-184.213
-44.3605
-156.903
-32.8292
-140.896
-101.192
-173.169
-97.8039
-110.089
-208.428
-13.4576
-183.083
-74.9467
-86.2284
-151.814
-147.6
-165.72
-162.148
-112.305
-124.569
-144.586
-62.6596
-132.427
-142.225
-120.8
-121.553
-173.803
-127.492
-60.4272
-122.68
-97.1136
-22.0346
-13.6947
-131.057
-177.64
-4.43409
-153.499
-117.254
-120.042
-163.1
-183.828
-15.7957
-107.414
-10.6068
-171.555
-75.2221
-190.953
-190.891
-48.816
-11.8555
-174.981
-45.6179
-239.603
-21.5916
-76.6248
-158.378
-86.0077
-94.0671
-76.9614
-13.1222
-125.277
-79.9925
-124.83
-93.7332
-120.583
-114.247
-150.119
-113.111
-86.1529
-119.032
-66.5338
-134.148
-37.983
-51.1508
-54.5349
-58.4741
-238.529
-250.813
-101.661
-91.2602
-117.376
-106.383
-38.2043
-137.247
-128.442
-128.488
-169.306
-182.811
0.221424
-125.641
-188.366
-110.097
-41.6194
-165.759
-137.692
-51.451
-129.288
-70.6026
-167.5
-160.341
-169.858
-170.084
-149.701
-171.558
-110.223
-163.663
-161.214
-155.955
-138.884
-136.662
-95.2951
-223.997
-97.9228
-147.064
-10.8414
-10.1616
-115.398
-126.701
-33.7131
-160.686
-137.636
-114.307
-165.024
-174.889
-187.231
-108.246
-186.398
-184.952
-160.109
-138.095
-41.6132
-45.8623
-58.4063
-116.618
-29.7943
-23.7138
-130.306
-163.397
-143.894
-123.357
-49.4896
-155.431
-88.0576
-81.0362
-138.148
-49.3045
-27.9096
-129.734
-104.852
-106.593
-99.2514
-79.0483
-156.936
-109.227
-166.898
-104.249
-101.005
-54.5188
-176.022
-23.3659
-127.465
-161.868
-154.124
-122.635
-82.2684
-79.8759
-88.0393
-165.746
-172.542
-132.176
-180.596
-20.2854
-12.592
-123.969
-111.364
-15.5874
-66.5629
-181.08
-78.366
-136.412
-124.064
-105.055
-62.9624
-169.536
-98.9814
-59.7888
-25.8821
-179.516
-15.635
-189.385
-85.7938
-70.5773
-189.394
-85.3394
-105.629
-135.269
-67.1059
-178.005
-141.063
-146.879
-191.711
-166.566
-159.539
-125.106
-83.1314
-87.7738
-134.847
-180.175
-182.769
-79.9688
-165.719
-123.465
-173.316
-159.734
-135.941
-139.438
-66.6735
-78.4549
-26.6616
-82.2864
-189.867
-99.7232
-130.893
-136.57
-81.2209
-131.101
-148.759
-132.765
-167.976
-109.923
-173.799
-152.649
-153.131
-106.545
-74.8993
-169.218
-165.454
-118.818
-14.6919
-16.8424
-148.112
-13.7216
-7.02208
-13.324
-89.233
-77.3662
-80.8114
-146.955
-225.8
-57.4429
-163.872
-119.82
-152.95
-140.61
-94.4647
-62.9354
-154.172
-159.254
-140.106
-103.637
-139.499
-158.325
-63.3486
-77.4641
-162.753
-162.521
-144.443
-3.41677
-89.0428
-95.5554
-149.764
-122.61
-155.619
-143.57
-24.6686
-193.046
-136.558
-105.847
-83.1128
-107.172
-143.195
-129.766
-190.108
-190.664
-101.211
-129.241
-144.906
-70.3499
-16.7076
-132.628
-173.815
-124.066
-123.361
-142.945
-112.347
-103.281
-14.311
-90.3901
-141.792
-61.6212
-140.405
-119.41
-184.232
-47.8757
-146.398
-148.355
-106.043
-126.159
-191.758
-186.891
-99.1419
-186.165
-139.384
-76.556
-74.7207
-66.9781
-61.2873
-111.695
-30.5256
-165.68
-161.426
-61.5386
-66.5876
-190.866
-99.6147
-110.103
-127.892
-135.443
-122.126
-187.61
-133.137
-151.455
-153.787
-161.185
-152.734
-180.744
-140.601
-156.191
-145.439
-150.293
-58.8046
-178.535
-103.677
-157.703
-129.626
-125.28
-208.658
-209.408
-127.211
-140.866
-125.027
-26.6604
-45.9791
-67.3876
-123.452
-118.664
-164.232
-140.459
-114.472
-117.29
-193.486
-140.89
-140.718
-240.876
-89.2434
-179.058
-38.3141
-27.6451
-163.776
-166.328
-95.1172
-193.203
-145.262
-54.1412
-69.1214
-126.051
-100.499
-106.206
-146.317
-165.021
-98.2713
-182.526
-39.3326
-34.3065
-264.851
-104.266
-21.8439
-173.992
-113.277
-108.748
-183.74
-92.8342
-131.13
-218.5
-123.717
-133.719
-107.616
-119.052
-132.155
-81.2234
-102.126
-128.007
-122.602
-93.5918
-157.047
-155.078
-122.798
-136.49
-59.2753
-81.5522
-65.9363
-151.679
-136.199
-162.368
-172.427
-17.0694
-132.636
-85.1371
-106.647
-163.654
-107.33
-119.953
-19.6237
-160.864
-83.4373
-159.897
-167.273
-212.397
-30.8801
-142.274
-191.713
-199.398
-224.505
-125.491
-168.702
-33.0884
-50.8756
-100.37
-161.457
-167.715
-212.738
-132.687
-120.47
-96.5099
-88.6228
-2.47392
17.5998
-123.664
-76.9714
-176.667
-149.306
-165.946
-162.467
-160.349
-70.9066
-98.7083
-100.013
-85.0286
-97.831
-137.442
-12.2843
-14.9273
-191.086
-107.754
0.0450199
-71.829
-131.024
-182.621
-171.355
-111.646
-120.522
-90.8637
-124.259
-148.451
-198.075
-84.7934
-145.71
-214.743
-107.101
-200.333
-76.1154
-61.193
-110.764
-126.544
-88.4102
-114.814
-172.183
-131.979
-139.808
-140.656
-128.535
-191.244
-191.054
-49.6155
-150.766
-154.667
-97.9316
-182.62
-79.542
-146.832
-131.592
-151.021
-143.522
-184.923
-56.8658
-114.859
-185.184
-7.0723
-7.53149
-178.393
-86.92
-180.578
-116.211
-59.8444
-43.2941
-163.494
-176.694
-27.0749
-170.649
-99.5378
-101.34
-95.2181
-118.023
-76.0725
-93.6956
-86.2566
-149.723
-2.2756
-178.278
-138.6
-89.9964
-140.984
-20.6384
-110.128
-182.451
-184.361
-125.93
-107.2
-156.489
-119.118
-173.563
-192.028
-167.374
-152.709
-184.044
-147.765
-129.132
-115.155
-5.71538
-189.344
-112.908
-24.414
-115.522
-175.787
-130.527
-106.455
-74.7006
-22.8864
-147.45
-46.0327
-38.1678
-80.7817
-114.405
-127.841
-23.6007
-42.9423
-124.872
-154.591
-154.256
-130.823
-12.1571
-183.492
-118.886
-136.825
-147.313
-160.887
-93.5518
-123.024
-144.845
-195.086
-110.406
-62.756
-138.398
-167.425
-7.56825
-126.968
-85.2008
-85.4284
-53.7575
-150.435
-153.041
-93.9649
-152.605
-77.3467
-91.5769
-76.0373
-72.8294
-127.877
-135.636
-201.533
-69.7221
-160.391
-31.1149
-137.104
-90.8883
-110.208
-119.832
-172.558
-189.057
-113.58
-126.683
-116.642
-87.4501
-114.197
-104.097
-61.3322
-83.8414
-17.4139
-109.879
-169.523
-23.4207
-44.2027
-53.9224
-27.4347
-154.244
-64.3461
-43.9325
-123.092
-140.395
-37.554
-36.9903
-46.1864
-39.7639
-45.5644
-143.84
-167.497
-115.231
-26.0032
-71.7067
-179.29
-177.01
-163.559
-125.187
-114.125
-20.9147
-162.863
-20.8142
-10.6593
-70.2138
-78.9395
-85.0098
-85.7405
-15.596
-155.666
8.7897
-88.7482
-111.77
-117.133
-107.087
-114.768
-148.119
-115.807
-109.01
-168.79
-170.207
-105.866
-105.498
-137.217
-29.4164
-161.339
-169.148
-33.1879
-174.033
-112.369
-164.932
-70.07
-166.149
-58.3911
-169.018
-132.291
-72.4136
-122.822
-207.446
-11.3004
-15.1716
-184.104
-176.52
-176.749
-155.451
-157.466
-100.349
-71.3599
-130.417
-44.5279
-85.297
-181.751
-124.716
-117.415
-106.255
-122.246
-76.7927
-207.209
-120.851
-86.2469
-229.404
-105.199
-9.4209
-10.301
-167.436
-95.0835
-45.7728
-140.925
-108.768
-83.2951
-89.8435
-96.009
-139.051
-113.45
-181.164
-104.265
-147.918
-152.028
-11.7368
-66.4278
-56.3487
-73.3931
-176
-152.637
-147.98
-137.083
-149.911
-180.156
-76.2372
-128.733
-116.585
-117.942
-159.514
-38.6832
-127.807
4.65947
-180.846
-105.433
-104.241
-192.828
-99.6586
-78.1718
-212.029
-79.2205
-160.247
-186.643
-105.159
-89.4411
-83.428
-100.314
-85.4343
-152.438
-53.5821
-103.852
-94.4921
-58.1375
-64.4189
-96.4919
-169.856
-114.495
-131.152
-199.19
-67.1317
-106.894
-92.7007
-27.9314
-1.85558
-125.908
-102.519
-45.6128
-117.618
-160.919
-134.803
-135.413
-81.5683
-113.888
-155.176
-102.039
-155.682
-159.625
-147.308
-109.429
-141.668
-135.886
-125.136
-82.1154
-118.761
-76.783
-16.7913
-118.317
-110.084
-136.206
-170.773
-50.5103
-103.532
-58.0105
-89.9505
-85.2664
-87.4325
-41.1737
-63.1601
-119.954
-50.9585
-157.244
-176.677
-85.6757
-82.3734
-76.9573
-110.594
-138.086
-10.2178
-276.8
-191.099
-180.971
-151.322
-122.08
-165.639
-131.969
-196.433
-156.79
-145.261
-135.804
-178.554
-131.701
-205.91
-123.719
-131.108
-147.971
-84.7892
-125.168
-152.86
-114.861
-192.685
-130.9
-108.322
-130.173
-227.91
-210.374
-178.517
-174.79
-15.9112
-155.476
-95.6664
-29.6154
-9.36513
-164.481
-76.4593
-133.009
-55.0002
-192.181
-191.887
-167.275
-132.34
-9.55853
-102.425
-33.5728
-100.245
-103.107
-178.536
-13.1929
-112.602
-110.933
-121.925
-152.034
-182.501
-129.295
-102.291
-157.033
-151.211
-23.4561
-130.65
-151.104
-35.1546
-44.2288
-159.289
-68.9835
-52.9863
-64.8443
-11.5269
-13.6411
-108.273
-172.492
-44.6839
-44.769
-57.2187
-43.6493
-65.4436
-128.918
-189.2
-150.582
-118.409
-20.1513
-37.7853
-115.679
-145.497
-118.884
-141.087
-139.942
-34.9365
-19.9642
-95.933
-173.749
-76.8161
-49.9812
-251.128
-141.528
-144.299
-131.957
-183.37
-10.5495
-107.091
-108.627
-125.157
-141.779
-85.979
-172.552
-114.567
-24.7585
-116.759
-123.447
-112.503
-64.7986
-88.5861
-94.3596
-136.162
-194.298
-64.4648
-39.146
-139.302
-90.6463
-118.395
-150.856
-196.534
-101.85
-13.3261
-181.525
-178.844
-142.455
-149.726
-80.3117
-178.317
-181.068
-153.847
-121.882
-151.668
-146.066
-113.481
-199.633
-124.658
-196.546
-184.096
-153.467
-145.783
-152.031
-168.56
-65.8206
-79.455
-16.8815
-170.024
-114.33
-200.769
-174.227
-232.766
-168.821
-182.822
-147.261
-128.914
-198.224
-101.356
-49.2205
-105.865
-153.077
-155.397
-117.802
-35.2742
-166.086
-127.907
-66.5931
-135.993
-118.142
-105.484
-97.6695
-153.739
-111.359
-55.9866
-48.0297
-56.1653
-117.669
-162.137
-75.5055
-70.5856
-100.466
-178.3
-164.454
-161.4
-116.571
-178.187
-138.675
-235.41
-75.3383
-138.886
-154.734
-182.86
-179.717
-12.6394
-116.658
-152.201
-99.49
-81.1149
-105.073
-110.334
-114.714
-128.999
-174.457
-111.541
-61.636
-45.8204
-24.0903
-137.343
-112.045
-92.6474
-157.167
-73.5432
-25.4079
-85.5397
-57.0521
-131.111
-118.78
-143.773
-90.9819
-6.79692
-59.4103
-113.418
-161.219
-162.021
-156.223
-143.217
-35.7695
-75.2717
-144.174
-161.121
-186.217
-146.466
-208.057
-177.113
-100.149
-63.2263
-134.598
-146.705
-125.794
-177.573
-146.122
-128.039
-121.983
-118.578
-150.367
-133.727
-125.46
-156.77
-161.946
-110.649
-100.367
-112.732
-91.1462
-114.565
-93.7509
-156.68
-134.556
-134.776
-153.111
-143.424
-110.599
-70.0006
-73.0265
-174.827
-123.578
-105.193
-123.035
-150.008
-212.273
-61.258
-172.513
-121.113
-100.372
-72.542
-103.054
-191.863
-10.9746
-95.4862
-115.72
-122.104
-85.8062
-7.99912
-39.7526
-36.6248
-172.692
-104.66
-21.7169
-190.477
-134.693
-106.56
-182.501
-136.785
-129.571
-124.754
-85.9769
-176.63
-148.06
-165.084
13.3592
-159.998
-149.817
-15.5989
-70.3502
-141.956
-68.8778
-66.5229
-182.206
-81.9923
-163.906
-139.775
-140.948
-152.246
-142.532
-129.348
-159.85
-106.452
-191.698
-45.0151
-69.0559
-136.553
-129.673
-129.79
-96.9057
-174.973
-122.451
-53.2355
-161.497
-72.1747
-233.8
-115.799
-138.327
-96.7268
-159.29
-77.1621
-182.468
-135.499
-135.511
-112.185
-107.411
-18.3862
-15.1972
-147.223
-179.73
-156.288
-97.0611
-167.348
-2.90085
-10.9179
-68.953
-36.8734
-113.868
-15.365
-128.128
-160.732
-60.9933
-74.389
-138.279
-149.456
-114.313
-223.13
-161.596
-9.15821
-92.1065
-85.4618
-87.4242
-53.8332
-180.865
-128.784
-155.818
-192.843
-53.5041
-110.339
-105.875
-102.654
-143.701
-90.867
-101.176
-24.0697
-92.532
-177.412
-117.506
-112.665
-82.1108
-113.739
-127.049
-138.416
-172.751
-84.5223
-175.137
-168.782
-155.414
-112.553
-117.319
-21.9746
-157.782
-202.18
-100.983
-47.7241
-43.1329
-4.25223
-71.5575
-171.021
-207.218
-6.21747
-244.24
-132.497
-112.587
-120.945
-71.1623
-157.744
-161.634
-29.0438
-161.047
-125.99
-131.599
-104.164
-104.162
-157.568
-132.036
-163.407
-154.322
-92.0113
-181.721
-110.198
-117.686
-41.0691
-210.931
-135.463
-76.8786
-137.901
-131.293
-189.974
-155.465
-91.7742
-172.391
-176.891
-77.1781
-100.157
-90.1902
-123.507
-150.839
-116.976
-129.401
-136.443
-143.473
-13.7406
-210.457
-178.456
-123.656
-3.00581
17.2401
-104.62
-91.6134
-135.568
-99.5098
-95.8925
-171.245
-166.071
-4.45471
-117.059
-76.6663
-104.662
-19.7421
-161.545
-164.587
-86.1353
-121.282
-66.3172
-61.6177
-50.5611
-106.983
-79.9935
-240.485
-150.383
-104.014
-87.7214
-26.6957
-132.467
-127.219
-146.69
-23.2691
-86.8506
-127.365
-107.12
-98.5999
-101.07
-102.05
-23.9295
-194.641
-243.482
-216.387
-82.0459