/*--------------------------------*- C++ -*----------------------------------*\
| =========                 |                                                 |
| \\      /  F ield         | OpenFOAM: The Open Source CFD Toolbox           |
|  \\    /   O peration     | Version:  2212                                  |
|   \\  /    A nd           | Website:  www.openfoam.com                      |
|    \\/     M anipulation  |                                                 |
\*---------------------------------------------------------------------------*/
FoamFile
{
    version     2.0;
    format      ascii;
    arch        "LSB;label=32;scalar=64";
    class       volScalarField;
    location    "10";
    object      epsilon;
}
// * * * * * * * * * * * * * * * * * * * * * * * * * * * * * * * * * * * * * //

dimensions      [0 2 -3 0 0 0 0];

internalField   nonuniform List<scalar> 
76020
(
141.535
169.502
47.711
231.281
112.214
153.895
145.921
95.5709
95.155
110.367
47.7463
70.4932
49.7506
165.666
120.186
182.151
190.021
309.081
67.394
91.9321
147.256
185.656
184.198
44.6497
174.999
45.6644
51.5526
43.6244
197.678
127.051
182.113
211.208
125.005
48.2614
103.452
269.823
48.4733
191.997
261.589
205.086
112.618
125.658
465.402
412.968
622.706
382.315
84.4134
91.1435
66.9951
83.4656
157.997
172.197
124.711
116.612
129.853
88.8601
256.547
226.149
574.475
69.7405
76.5898
212.172
170.928
106.956
104.312
80.0094
79.4372
151.032
113.723
113.182
70.8651
481.67
47.816
61.628
117.67
93.2813
138.744
114.96
139.106
148.19
287.248
154.744
74.207
103.251
366.7
558.191
483.899
256.592
195.145
132.164
130.958
304.663
82.7673
95.7678
46.6602
290.015
98.1714
110.919
127.183
84.0983
84.1106
47.2956
173.742
66.8971
749.458
53.5142
99.4725
102.912
55.9648
132.721
168.44
196.137
129.226
271.872
194.081
116.461
115.086
51.0341
90.4828
94.8065
151.073
213.658
55.2371
308.981
303.815
151.184
506.792
60.4505
132.642
50.763
179.891
318.966
206.747
209.877
289.517
233.749
68.4241
171.152
109.923
120.424
120.695
100.036
90.328
174.79
221.442
159.369
150.885
49.6752
49.2064
46.4082
106.528
245.668
162.6
152.943
299.154
305.796
97.3665
130.191
90.5301
330.083
236.021
102.442
95.8743
49.1709
51.4365
245.233
130.652
48.4203
130.171
171.369
85.7081
108.814
121.051
88.6983
127.123
34.2093
107.282
108.513
420.401
114.509
239.641
168.161
153.313
120.702
76.8856
169.978
125.344
88.573
105.605
337.939
375.798
110.987
126.109
496.564
239.795
495.015
326.082
54.3569
155.812
80.6139
48.6366
113.898
107.631
51.0477
48.0574
64.1787
150.823
150.712
112.52
53.4579
101.611
39.9962
295.911
128.236
183.065
140.038
87.9234
137.688
98.4051
83.2722
221.022
64.9424
166.237
95.232
50.2938
190.081
208.549
188.121
104.974
571.277
130.511
497.71
152.731
142.709
39.0786
307.055
145.851
147.935
89.9509
359.629
86.4223
215.768
47.293
468.403
199.88
70.9476
176.113
126.743
471.205
148.755
94.7624
342.804
114.337
171.145
142.431
110.288
51.766
51.6666
184.101
179.261
222.648
411.433
79.3214
236.242
147.003
216.085
186.194
194.606
157.586
47.1939
253.168
349.684
152.08
119.005
163.202
105.546
68.4179
287.075
255.305
138.013
126.274
264.59
328.265
463.929
64.1589
51.2357
36.6285
232.55
144.484
92.4269
46.5811
107.471
36.8169
120.093
48.4888
149.657
80.5347
59.6262
69.2123
119.652
106.397
108.219
325.727
47.9359
49.6663
99.2018
94.028
48.7846
110.622
314.193
304.69
318.138
312.601
89.5806
207.22
536.339
423.012
85.8577
87.3956
155.832
73.1601
400.121
47.9762
319.991
97.2695
92.6032
112.496
114.934
168.929
184.561
116.541
230.38
384.74
205.611
156.249
89.0314
175.54
392.604
47.7766
206.249
265.728
372.998
442.286
85.182
49.95
139.176
136.306
274.912
90.4656
109.219
99.8158
331.568
50.3256
313.733
194.928
155.272
213.052
73.0554
378.071
128.524
99.8964
55.7849
54.6898
120.453
272.949
279.604
110.2
96.9342
49.526
49.0568
49.0389
193.027
141.747
114.408
49.2879
163.257
132.092
258.343
114.06
231.6
220.632
67.4868
304.872
39.4944
161.098
143.382
611.164
99.9642
91.1057
181.106
48.891
171.491
325.645
476.979
52.6102
96.8913
414.253
337.284
162.636
80.2257
533.333
275.075
305.005
135.693
83.5824
52.4902
287.012
166.849
53.4764
56.918
143.478
151.188
84.8372
105.771
118.413
290.592
342.33
105.909
131.43
202.804
150.647
87.6631
167.727
144.192
437.507
53.8571
303.195
316.771
171.557
140.533
102.6
137.709
204.455
198.886
47.9256
66.337
101.654
67.4955
225.342
211.838
36.7245
47.6505
105.817
237.909
110.096
352.808
192.073
350.057
253.31
50.7659
107.283
294.863
370.044
353.951
286.093
151.394
677.042
680.813
60.5973
179.749
117.564
167.872
116.227
128.014
48.1937
666.411
52.8453
51.7331
134.596
122.138
51.2935
52.2944
109.191
369.75
141.684
137.354
51.7729
53.9848
540.088
149.714
155.439
110.46
100.329
224.438
125.441
191.477
58.5045
45.9582
109.222
136.24
83.6403
119.844
149.529
318.962
189.297
50.689
193.468
34.6927
105.048
233.547
82.5003
102.989
46.9638
40.2786
156.509
126.083
131.276
85.7264
103.322
171.573
67.9051
112.085
184.253
130.985
41.5996
500.146
283.211
236.79
168.815
330.585
302.666
275.03
134.322
128.914
300.133
95.6644
393.007
195.127
147.852
48.6727
156.979
183.357
150.363
309.625
289.115
146.083
232.678
116.501
329.313
47.6444
457.652
392.668
455.885
207.441
44.7477
246.413
91.3601
138.445
80.8414
41.3569
148.902
47.407
130.36
151.86
91.7464
387.478
95.9545
198.869
243.3
307.405
41.6732
48.8946
91.1566
50.8667
88.8246
53.3948
329.596
93.8254
53.0726
272.314
222.435
68.3764
117.932
244.254
324.458
195.17
144.398
414.743
158.122
43.6357
65.0309
50.9205
99.8352
128.585
433.849
133.498
128.362
53.1861
54.0557
89.2874
217.057
424.341
110.1
87.5757
316.599
161.693
316.516
357.378
169.255
567.315
128.785
215.792
248.818
124.551
120.485
110.377
211.419
162.194
112.921
92.0279
100.065
94.2611
300.229
48.0655
50.1918
50.6827
47.4579
44.1215
49.8972
243.51
172.804
177.044
70.8837
265.063
107.14
146.715
44.4634
170.198
222.728
134.386
457.62
86.3749
323.514
221.525
51.9728
192.367
228.925
139.915
52.2234
57.4162
323.332
257.53
94.6098
229.194
97.089
155.612
97.471
112.944
180.12
108.158
126.436
114.203
95.7464
147.202
319.035
157.684
333.002
369.971
47.264
202.926
203.212
50.0999
185.256
192.151
416.91
364.758
153.226
189.45
308.397
218.12
87.3779
118.9
107.105
97.9647
131.823
56.0708
53.7383
130.472
126.699
114.782
199.797
153.034
120.808
108.142
157.701
113.372
44.419
47.1288
189.175
237.197
295.869
312.102
252.283
131.328
126.347
398.787
150.452
39.7683
130.288
45.5304
194.417
206.446
316.207
426.686
43.3513
116.46
77.4908
214.828
102.213
409.996
135.901
159.575
208.511
44.9992
116.588
176.661
50.4386
91.2959
108.299
287.938
120.125
174.247
528.369
120.319
236.814
268.518
523.956
503.886
180.545
116.739
43.6309
48.1304
66.5307
43.6968
49.597
49.9797
186.656
144.129
48.6085
208.32
188.135
422.124
48.1191
214.699
74.3806
314.725
277.385
43.9275
49.7051
97.01
145.605
129.96
364.484
99.1614
276.969
167.36
204.349
224.15
157.784
94.3742
325.783
131.966
313.023
211.67
219.843
185.424
96.4931
141.684
272.698
409.036
113.912
541.55
106.521
113.02
77.8091
88.7235
107.83
154.007
335.499
261.38
209.168
94.3772
92.1974
131.953
175.353
159.804
279.26
120.65
969.064
104.721
93.4812
53.4202
155.133
50.7172
153.545
357.425
411.304
160.326
44.6537
103.036
42.4602
326.707
383.983
205.186
77.5038
145.034
51.3176
202.034
91.656
92.1102
48.9232
53.6081
50.0623
350.313
150.716
482.385
51.0776
172.485
131.404
161.323
213.588
98.7801
308.047
140.732
552.746
405.221
133.434
116.13
131.053
55.5729
52.0355
65.5737
364.622
241.946
49.15
127.774
109.439
86.094
214.222
152.519
420.888
397.074
55.0995
93.163
95.4679
129.383
407.763
506.342
352.515
51.0079
51.187
86.7623
134.938
150.391
434.188
76.8788
113.838
53.4298
55.1716
458.176
37.962
174.472
54.2472
84.8193
195.787
147.062
120.062
157.039
50.3573
46.5529
63.4548
158.813
49.4419
101.438
459.904
151.383
128.529
164.845
150.126
371.619
35.3089
56.2871
47.9543
92.6914
48.5433
134.513
125.645
287.31
212.725
128.343
321.46
94.767
371.261
196.576
38.11
43.4246
124.949
118.737
36.0584
47.6841
58.6566
104.445
53.4405
138.764
48.211
203.316
119.4
108.286
216.212
60.194
83.8203
112.587
161.595
222.294
202.823
38.9089
115.139
181.836
40.9423
123.353
430.454
570.798
127.509
355.897
47.0463
52.8756
45.8423
291.091
204.452
209.504
178.269
146.715
201.504
160.709
120.442
104.917
175.897
48.1054
52.3786
51.2928
371.539
137.668
400.832
440.101
110.355
310.993
302.297
435.272
119.524
355.319
50.8982
188.901
52.9786
52.5683
474.229
398.289
141.518
230.176
159.304
157.173
389.021
44.5099
349.754
190.407
43.0975
52.9346
48.5187
52.5361
122.288
53.9418
50.5142
52.0455
52.7252
127.388
158.552
148.148
72.3688
59.302
350.608
208.752
103.323
143.263
123.153
74.6172
288.703
81.602
339.383
110.749
160.342
114.333
92.5765
332.524
233.46
106.823
48.8497
54.563
127.846
51.6852
49.6437
68.2014
89.887
172.591
337.916
509.154
61.4016
230.054
56.0231
216.05
269.761
106.688
601.735
118.373
627.438
321.055
155.516
143.838
105.696
158.885
133.795
41.8179
47.6832
134.565
400.375
104.162
48.6007
173.332
301.257
65.423
47.9848
146.062
148.34
460.331
99.6563
88.8398
38.3168
363.042
124.235
535.374
51.1904
113.157
203.52
193.844
127.399
236.772
110.887
56.0363
48.2822
283.357
50.3319
250.906
112.979
456.981
42.5305
466.497
177.169
45.9718
51.5306
136.499
142.111
67.714
143.976
108.558
622.182
48.3118
116.781
524.298
567.056
506.119
194.494
508.966
87.7613
272.107
157.069
149.403
38.0147
243.002
173.303
124.641
111.83
474.282
330.514
102.309
482.544
207.775
271.501
125.892
169.283
52.2757
351.207
118.538
72.2604
351.088
226.899
78.7854
48.5697
153.08
604.045
45.0583
221.971
267.807
336.593
46.7001
42.0285
71.1159
156.803
47.0922
79.9678
297.024
173.342
293.188
227.863
120.552
53.1277
505.259
457.747
359.044
270.531
325.158
357.756
328.409
774.267
143.229
112.543
213.455
160.29
358.338
116.626
136.376
143.587
141.096
131.016
131.653
139.16
93.6335
164.46
95.286
153.262
149.136
53.2029
109.992
317.72
136.463
373.129
209.477
34.0133
414.714
140.42
169.013
50.8176
134.83
106.292
64.9621
68.1592
327.999
141.66
286.497
105.006
73.9945
236.429
49.1
224.851
228.13
110.433
73.7128
51.9768
40.0579
104.111
326.166
126.387
49.9403
184.312
268.911
132.601
151.408
257.503
166.35
177.752
55.1189
66.7369
157.476
60.624
52.0682
161.247
138.419
56.7205
361.755
39.3484
214.345
75.0936
117.995
166.288
150.853
143.615
524.736
140.169
50.1298
140.944
117.466
227.167
245.497
159.299
180.333
180.498
133.097
473.516
223.862
337.874
232.827
139.009
52.8557
87.5541
193.518
292.506
69.0954
215.137
89.0689
265.219
178.707
124.562
48.6973
100.039
47.5315
156.787
313.748
81.2295
110.435
44.2803
479.89
57.2054
49.1818
47.5271
247.417
465.167
297.596
95.3843
125.547
133.233
43.0423
49.5997
49.6109
172.648
55.6098
46.9192
107.447
135.856
101.028
209.439
211.38
328.319
184.492
228.961
318.957
47.484
285.252
52.0393
52.223
46.6958
137.243
123.24
69.1367
58.6108
328.948
118.515
125.152
37.4797
67.3756
106.71
165.056
56.0015
113.78
47.3048
48.6053
35.0537
95.4081
101.471
112.15
119.942
155.442
602.215
51.8203
362.516
54.4399
344.022
91.9034
106.843
51.157
121.88
53.3848
352.447
54.443
575.335
633.331
326.828
312.626
470.075
163.934
174.158
107.539
1209.59
516.728
242.772
44.1208
79.5135
79.5891
52.6825
291.716
243.128
247.952
124.693
143.6
499.361
42.1674
41.6614
254.478
53.0106
52.1848
184.291
114.406
271.88
141.783
53.0589
384.91
401.164
60.7723
46.0125
174.267
93.2178
133.316
51.1662
50.7948
250.328
72.8759
52.2917
177.399
106.644
239.21
240.623
505.496
469.973
156.902
254.317
70.5104
195.309
216.978
120.224
203.129
460.81
555.879
125.937
153
363.45
80.8277
35.7182
319.956
186.698
407.85
161.422
161.955
48.1146
94.7246
47.7581
737.319
154.636
236.822
230.621
162.338
601.915
108.575
118.452
177.871
96.7134
688.928
50.7734
218.888
136.047
121.718
57.2156
547.214
166.339
164.575
46.8575
45.6792
124.534
123.818
140.665
233.882
108.929
50.7109
57.4933
58.5861
117.961
510.151
109.584
451.594
125.082
127.301
60.6032
63.6168
146.223
148.345
48.4705
57.978
345.051
123.778
225.294
47.4994
170.389
145.527
192.086
470.698
38.6092
316.327
208.043
169.377
253.962
89.4643
245.248
196.953
238.258
105.638
224.357
299.529
184.198
218.066
499.443
187.174
42.2251
50.2669
357.304
308.912
132.514
471.523
481.442
180.951
295.772
135.75
118.375
84.5204
172.615
114.311
600.454
459.029
175.32
349.724
268.499
287.024
459.187
55.0861
122.436
105.023
121.414
118.56
173.713
43.6444
42.8379
111.202
220.638
40.9929
182.299
48.34
36.6384
106.168
180.462
154.42
126.152
535.726
273.793
54.2951
243.228
64.6329
382.693
105.989
341.262
178.552
146.962
250.97
138.071
94.3864
136.002
189.186
110.778
82.6134
129.12
49.6594
163.758
35.3826
94.5259
122.564
122.073
164.04
316.195
307.651
465.26
197.883
98.6346
105.688
373.776
122.987
45.0507
486.559
67.2613
115.229
629.513
378.38
191.081
117.314
50.3353
520.713
328.685
382.979
470.597
454.923
130.144
385.516
338.51
414.509
396.996
457.103
113.355
136.796
33.2486
231.732
231.659
376.483
188.51
207.679
123.188
242.036
64.5532
129.143
48.1893
102.301
205.15
76.6643
80.3793
98.8655
189.139
150.008
103.899
135.329
33.3489
170.163
148.125
73.9145
219.799
53.0681
128.584
243.345
123.161
453.579
139.551
154.537
582.179
253.715
210.735
120.071
166.842
310.502
246.031
53.5975
219.112
245.767
94.0524
93.6021
127.32
306.8
277.649
249.224
327.556
186.779
352.142
73.4924
131.485
291.762
261.956
184.15
202.765
52.0897
52.3972
101.94
173.476
52.3959
163.19
231.971
251.965
164.374
79.1556
112.623
144.742
340.563
298.714
222.189
104.283
136.216
80.5171
82.6776
122.705
99.8536
164.431
380.308
351.155
33.7397
163.617
218.218
193.772
110.119
188.37
63.2646
34.4769
204.138
148.588
205.856
148.714
186.842
85.1109
413.84
47.544
108.372
247.988
76.0208
152.73
223.548
133.423
54.2346
199.767
314.315
133.296
491.834
503.429
165.391
47.3455
47.1675
95.327
51.8178
137.043
93.1754
94.0292
555.68
55.2432
123.639
223.084
254.414
136.026
464.04
57.9948
57.1102
378.76
232.603
266.834
245.143
215.384
52.6707
672.346
140.843
293.821
213.892
51.2721
178.433
131.747
37.5369
258.546
90.4839
45.7683
66.8866
178.221
322.923
85.713
136.373
337.182
341.519
221.562
214.509
176.282
200.378
135.552
513.742
134.682
396.515
676.92
130.023
95.4689
86.7394
51.1473
218.232
41.9086
40.1501
438.39
409.826
200.943
139.114
49.0257
262.604
149.649
412.25
146.646
91.3335
84.645
501.597
121.927
48.1937
572.534
534.998
196.732
226.95
222.997
235.71
147.674
95.8133
244.692
90.2724
158.9
456.694
132.015
339.034
81.7332
151.813
64.2461
33.1918
37.3603
174.952
157.363
90.062
42.0428
43.5496
102.166
110.28
115.001
109.862
122.844
109.166
253.706
440.32
408.164
241.643
185.223
142.356
203.742
511.349
73.8363
142.889
181.138
145.969
195.783
211.768
442.63
256.429
53.3054
120.952
87.2831
193.47
237.418
174.715
224.932
52.9854
291.861
84.7742
47.2731
105.596
109.941
94.9575
297.53
266.565
159.141
132.768
369.834
206.771
96.9893
140.416
110.332
117.986
141.746
477.439
691.094
288.563
410.842
144.373
156.288
812.736
47.1383
49.6299
258.823
177.587
75.3292
187.97
582.119
109.822
111.462
394.326
275.801
159.717
622.398
745.796
203.342
146.627
114.082
90.2492
608.648
426.897
591.659
191.055
65.9548
243.949
483.317
387.635
424.576
365.267
135.472
94.907
46.8807
245.072
117.052
160.873
139.119
245.124
123.854
235.874
145.638
185.343
188.235
178.008
238.569
416.715
216.523
369.674
151.563
73.9523
189.113
95.3047
87.5042
91.6677
89.2981
76.0125
119.171
52.8622
155.842
134.481
110.571
97.5074
91.5273
78.1065
124.54
74.9494
73.0429
167.075
641.898
92.2031
135.501
88.4443
45.6081
47.3744
103.796
201.896
139.187
123.249
192.037
174.017
93.6394
212.055
147.807
199.369
88.0874
182.224
769.434
51.2258
168.2
151.08
959.261
159.364
288.621
390.369
464.962
147.499
254.583
93.2368
90.7105
112.515
133.193
42.5082
122.015
134.235
63.0856
212.393
125.921
115.894
132.886
105.906
98.9757
148.362
304.683
163.004
242.913
66.0306
80.8422
155.421
219.714
302.307
441.541
103.933
453.174
258.187
71.6862
150.481
226.146
38.7478
73.6102
520.4
278.07
112.569
108.125
67.8228
157.388
93.9806
93.334
177.088
214.25
245.951
112.037
106.637
109.255
231.843
133.539
151.577
45.7415
46.046
61.2968
375.706
335.507
387.17
350.023
115.095
214.199
152.011
155.201
122.658
125.584
221.499
210.58
112.708
85.6636
176.409
138.417
402.498
484.174
684.141
68.0934
141.446
225.266
92.1857
192.338
761.512
131.843
115.067
221.718
95.5444
241.517
142.759
355.373
304.248
290.998
112.737
145.401
221.323
79.5745
121.426
207.685
540.127
661.732
100.917
327.234
330.352
102.104
91.2939
104.149
144.335
206.711
302.763
147.162
413.789
58.1555
324.573
207.163
146.764
116.392
272.894
258.621
105.796
406.657
105.406
513.524
586.131
108.985
308.129
44.9871
45.6471
45.909
37.562
110.548
631.684
153.972
90.5146
104.346
115.76
104.824
121.991
85.3884
159.109
94.2991
68.4938
346.701
352.822
105.834
134.422
92.3123
99.3618
240.032
246.836
300.086
342.901
150.549
271.086
82.4135
299.499
347.442
114.214
168.039
220.53
154.534
376.054
369.936
79.7545
90.4497
535.085
109.342
50.2693
41.9598
216.231
83.9493
306.372
211.575
81.3365
396.201
123.807
262.251
200.964
215.687
128.282
70.7369
440.794
222.121
130.515
105.576
105.093
97.4032
122.891
44.4424
73.1653
194.291
149.318
208.207
83.6291
398.515
244.894
134.174
140.283
181.89
167.442
100.024
104.646
64.2326
335.288
106.953
244.401
148.155
220.82
44.7101
159.969
202.428
406.536
456.78
149.387
224.989
181.534
313.555
117.808
212.638
211.109
137.815
135.308
147.316
231.643
134.141
492.539
165.341
245.632
129.172
92.1473
120.433
260.333
358.167
144.174
165.174
125.471
114.051
131.936
137.653
142.306
233.981
359.523
125.06
143.028
155.28
384.356
146.034
171.175
99.6256
177.18
98.1929
236.199
144.765
177.176
404.609
190.026
166.812
84.3181
161.391
157.265
379.231
363.762
197.843
128.399
147.52
155.44
201.999
74.4
181.377
156.517
128.646
335.812
260.742
329.128
145.098
151.695
110.377
187.56
224.747
255.018
100.622
72.4363
103.381
142.396
137.594
118.133
146.195
282.459
181.472
115.059
145.056
104.567
215.656
123.213
140.823
160.007
133.884
118.872
359.745
159.94
127.103
160.273
126.239
154.821
167.433
149.974
52.5257
68.6827
11.9892
76.4584
36.3596
51.3619
37.059
64.5143
43.7756
72.5193
10.0456
36.248
7.63237
60.4732
34.1682
86.0702
82.3483
128.614
22.3198
35.7391
119.274
77.3087
62.2911
8.88602
179.766
9.87601
22.1864
10.7221
64.2944
53.4396
94.2426
98.4264
60.4392
9.77731
65.0225
93.2402
7.95616
94.4006
117.316
90.3372
50.0304
48.662
210.643
149.05
235.616
164.913
32.2416
31.6383
30.0188
31.5558
101.888
71.7942
76.2171
47.5625
34.6461
19.7061
82.2469
98.1467
358.536
28.6029
36.0863
77.4169
63.8983
86.2984
44.9645
22.2138
83.8151
109.388
76.0212
39.1671
28.9394
252.538
11.3719
19.1561
51.0209
33.5344
70.1084
36.6584
53.4957
42.4744
99.5666
55.9294
28.1059
31.2914
139.832
205.145
243.255
102.753
96.2744
49.4482
57.4745
190.45
30.0983
33.8143
8.11271
125.171
32.0548
31.8651
45.0405
30.5638
36.9896
16.4133
58.7605
38.9084
434.571
10.6494
25.0471
26.7676
10.4192
61.0613
78.7217
63.0322
44.8515
86.801
60.1357
71.8351
52.7906
8.82658
31.846
26.9192
69.1652
91.9314
16.4979
97.7192
186.151
67.3173
112.879
21.3043
51.8067
28.9783
125.442
93.7131
77.6659
64.913
93.7926
99.9371
24.4288
91.1719
33.6128
37.9951
38.8581
38.5402
34.3595
34.3979
81.6904
59.7076
48.961
7.80334
11.0807
10.5913
53.4184
128.421
92.1056
61.8674
154.58
227.281
45.2241
35.8732
31.4197
191.252
178.934
42.5932
47.0197
20.1746
14.4394
82.6072
49.1022
9.8494
84.0279
47.5184
25.2627
27.0731
46.2994
29.4626
62.1776
12.9088
26.3114
26.9554
137.991
69.2129
77.7537
52.6523
60.1128
78.5113
24.4201
68.0914
72.9583
64.2819
64.275
157.41
140.447
48.3219
61.2512
258.954
109.73
202.345
170.768
8.94877
45.4081
23.6278
8.98926
46.1522
38.1114
12.6101
11.8507
21.3746
49.7685
49.3939
53.5943
8.8339
35.8844
6.36122
201.755
69.4808
116.905
47.7501
42.7215
52.1431
31.5794
30.7878
123.799
16.4061
76.42
60.1652
8.87325
114.084
70.7508
89.4487
131.987
323.459
108.521
194.819
44.7781
59.9306
6.4521
185.415
111.086
58.1202
33.8343
166.847
32.5034
201.2
7.84583
247.027
95.1873
21.9581
74.9701
48.2089
240.252
75.9063
25.8019
162.941
45.6136
56.8398
72.479
82.3066
10.6829
8.72091
57.6076
106.788
208.337
221.445
24.4755
104.056
42.5742
58.4577
72.7016
65.1742
64.6171
8.20152
108.689
126.426
74.9013
52.5639
54.1361
36.5063
20.2618
135.408
102.835
69.498
64.5019
98.1013
176.925
167.544
46.4974
49.6471
5.14448
136.907
50.9386
31.67
16.9852
20.3777
5.21327
48.4768
8.82833
59.7203
61.2941
21.7592
21.5355
50.3112
32.8706
38.1687
153.247
8.45619
8.97579
34.7259
32.7133
9.12276
73.5593
147.231
152.844
127.253
111.371
25.372
93.9777
195.447
139.822
33.7533
29.2116
53.8655
21.3672
117.816
9.91792
136.948
40.4601
27.4015
59.4706
50.8169
57.4243
55.0404
69.5875
110.688
170.574
161.111
42.6958
49.8604
91.8837
222.96
13.9814
75.8237
141.385
254.725
379.533
31.5774
9.22877
39.7588
36.2453
143.812
32.4735
43.2359
24.5212
132.462
10.4079
170.162
116.7
81.7524
58.0874
20.9998
108.062
72.8947
43.8708
12.2649
13.4388
45.7502
107.171
142.914
50.2173
33.1093
8.88165
9.49035
9.40451
211.952
151.702
42.6644
9.28372
55.7592
74.1144
259.903
52.2661
70.1265
76.551
21.2291
103.503
6.5519
58.2123
60.0199
429.265
29.7386
33.6535
152.977
10.2963
68.8068
194.819
163.919
11.791
52.7267
172.085
94.4
59.0126
21.4883
297.963
178.04
174.117
76.2867
53.1506
15.6195
112.543
69.2673
10.2941
22.2168
69.2916
57.247
64.3064
37.3055
20.7545
105.666
163.259
105.656
49.3162
95.4471
62.8631
22.2663
84.9809
57.1589
159.461
9.84198
127.972
156.816
92.1033
33.6272
40.7567
36.8902
53.277
75.5683
10.0018
25.7523
31.8225
28.5261
95.5354
104.248
31.0343
9.89124
47.3584
126.071
38.3037
74.483
45.9226
66.1398
105.583
9.33569
67.4854
175.56
184.923
160.981
124.248
70.4619
365.194
397.153
27.2398
67.0189
46.074
69.5279
35.5709
53.9268
10.2058
371.659
18.4642
14.6683
58.7216
32.9874
8.42184
8.83274
28.7497
136.799
59.6515
53.4166
14.2486
9.02369
174.914
64.0972
40.0316
29.2325
32.5254
95.3732
42.7333
89.0728
23.8293
11.052
27.2768
51.4753
20.3082
56.7567
147.565
90.5035
81.3041
17.0277
56.2075
4.62315
50.0621
102.759
34.8218
40.0975
12.0841
14.092
46.389
55.2435
41.0246
92.9215
37.9306
41.2191
19.7254
34.4314
59.9582
56.1776
18.1342
178.997
128.203
63.8815
60.2407
130.2
108.315
121.57
42.9929
38.9102
183.767
46.021
204.413
64.2071
83.5207
9.4016
75.0901
81.373
104.609
172.773
192.264
95.4584
106.768
27.9587
199.762
9.9006
176.731
168.568
122.545
83.0827
7.62693
140.362
55.9215
59.1796
28.2033
9.04807
60.8272
9.97112
178.459
104.407
43.4149
122.171
31.8412
79.1782
79.1408
143.926
10.0185
13.7923
23.7534
8.59211
45.9295
9.0369
189.41
44.4386
8.74373
150.423
123.627
16.0032
60.6086
123.773
119.257
80.8665
77.6914
164.438
63.5422
13.5235
18.1059
17.2128
42.7723
36.2893
190.223
37.1178
79.208
8.70129
8.77637
104.975
86.1351
217.036
24.0248
28.9747
92.8913
73.627
118.664
133.723
68.1932
282.373
46.2694
74.5273
94.2765
49.538
31.4431
41.209
94.4679
82.3617
144.916
46.38
48.3309
23.4633
111.311
9.97578
9.49803
8.70702
11.636
12.4398
8.28302
105.879
79.66
80.3037
49.8036
93.094
39.3425
44.221
8.3789
60.4645
61.1625
58.4651
260.258
22.3851
145.442
118.992
8.67286
114
88.6
65.3639
16.1025
17.2093
153.458
149.447
35.3524
102.033
30.5994
64.2132
73.0736
57.1957
99.1584
43.475
40.6102
48.1214
42.544
62.3482
103.161
72.2802
112.443
124.347
10.3499
107.151
76.2361
10.2801
127.386
116.19
247.57
323.195
67.1804
127.114
123.486
52.76
37.6457
58.0157
36.6443
28.1157
43.2875
18.2826
19.4744
53.9283
107.28
49.1057
127.612
70.3634
48.9805
29.1596
75.0724
20.0352
10.8063
7.96518
77.136
161.658
140.892
174.484
102.404
56.1351
54.6743
166.415
58.7094
11.3564
72.2323
21.8665
80.0386
110.342
152.671
153.37
8.20955
95.046
30.5516
81.5157
104.691
158.614
57.5495
70.975
153.463
8.03079
44.733
62.4017
13.4299
56.2978
60.8726
132.429
53.4388
79.473
373.277
70.4739
132.21
129.516
267.555
189.628
72.8172
42.578
11.5661
9.91481
22.7106
16.2058
9.18989
12.1731
109.669
103.119
8.96522
73.8003
69.9216
306.091
22.3038
61.1667
28.6198
79.6008
124.946
14.4464
12.0758
31.0811
96.8608
101.505
183.734
37.6567
206.027
98.6383
217.645
223.858
129.972
75.9835
283.675
47.5623
132.282
95.6271
77.241
94.8931
31.5244
50.5798
119.295
214.155
52.5579
189.324
41.9795
50.4779
34.2211
32.5918
69.6896
60.5594
116.341
89.5054
210.362
32.9321
32.7061
60.7985
117.032
61.1965
139.979
62.8403
423.325
29.6891
22.7368
9.0752
53.5731
8.88902
79.1737
130.013
212.944
57.3407
13.8798
61.5059
16.5597
146.013
133.622
132.501
106.068
28.1299
8.79511
107.524
36.5598
28.73
21.0078
11.7825
7.98048
164.902
127.415
252.175
8.91777
76.7967
40.5796
51.2517
120.914
47.5688
141.08
46.6189
154.553
120.239
47.9117
56.4017
41.6016
13.9638
20.4689
22.8547
189.633
161.463
15.9975
43.4425
33.3813
27.9673
81.749
42.0061
184.664
159.962
9.94589
26.5098
30.9242
63.5691
284.877
175.509
164.842
13.3786
31.3372
29.528
51.8733
54.3565
171.192
28.0931
54.5515
20.1332
19.1705
193.786
6.17784
93.5696
8.43394
34.9512
99.8476
54.8443
36.7119
42.5951
9.37854
10.2194
23.501
51.7958
50.1086
38.8689
219.14
64.2375
44.2278
58.0312
120.054
250.551
5.19648
21.9914
10.158
36.8098
9.43435
43.4303
72.1352
131.049
58.4521
36.27
110.877
27.47
265.826
82.6263
12.7491
11.9183
48.8314
50.2593
4.62092
8.17773
25.7319
40.7737
8.86059
67.6569
9.75968
45.8524
44.993
31.7377
113.288
13.4098
27.054
99.5085
52.7875
99.5587
68.9699
7.04528
41.0428
52.7391
7.94363
34.807
188.308
143.96
55.7237
160.264
10.3795
16.5072
8.17704
78.8654
85.203
79.1584
92.5196
62.0193
70.4408
56.0305
81.8197
55.7014
41.2757
9.8716
7.70992
11.4075
184.232
48.0771
267.499
240.569
41.6452
125.955
145.774
408.791
58.125
186.845
18.8428
96.4367
9.00847
8.53091
186.784
156.565
109.107
174.006
84.5054
53.9013
177.144
11.5405
93.8382
57.6825
13.7627
10.4615
8.01328
9.11281
48.9529
16.8952
23.6831
9.16336
8.66734
108.084
75.3681
74.8631
21.3155
21.409
174.073
89.2763
52.902
43.99
49.2923
27.6358
214.258
26.5095
163.839
31.8754
40.1857
26.9936
99.086
134.159
156.599
26.6532
11.0209
19.3493
52.0656
10.5068
9.30457
35.4551
49.2133
87.6382
254.859
269.533
24.2871
131.162
15.8231
120.433
116.334
43.9114
256.176
36.882
344.36
154.542
43.6147
46.875
70.6729
62.9473
41.033
14.439
14.6091
40.2298
127.744
34.586
9.76831
153.723
173.496
21.6217
18.5294
41.8916
57.7976
184.298
44.4877
55.4185
5.82363
163.2
53.0415
199.133
17.031
33.4209
85.2245
68.6918
54.8073
94.173
43.1451
40.1828
9.43133
128.634
8.9465
78.3062
26.2082
200.801
7.52778
191.6
100.787
8.10735
8.63213
108.917
56.5629
38.7645
55.2486
106.549
497.19
10.6334
73.002
185.906
139.678
247.558
119.668
131.947
131.761
158.826
47.6817
52.8125
9.7748
113.725
137.876
45.2083
71.1164
387.371
289.978
32.6728
203.099
136.349
317.752
38.9648
63.2857
8.84503
289.402
76.3684
22.9451
177.826
92.3439
27.468
10.2314
39.0284
191.714
12.3322
88.1141
101.669
122.951
24.2325
28.7412
30.6465
204.343
10.7809
31.6386
104.102
94.8324
94.1865
79.4966
51.0249
10.1667
200.947
173.368
162.718
113.143
131.897
175.408
147.121
419.232
69.9807
55.029
82.2433
206.699
165.157
45.5299
52.3614
50.8855
35.8207
50.3561
37.6584
50.8127
61.7804
69.4879
74.6273
58.9311
61.89
8.8878
50.9501
154.403
59.5858
130.636
108.37
4.79402
117.71
60.3817
61.8065
10.0607
38.8441
46.5699
25.3803
20.7741
197.078
57.061
127.823
28.4821
25.7818
65.0045
8.98625
93.187
87.0429
33.2342
29.8959
12.2504
13.7289
122.087
178.021
46.1703
9.57499
128.563
87.1902
64.0656
58.0602
51.2944
67.7816
95.6947
13.9507
20.6308
63.2803
43.2874
19.6034
64.4454
67.9558
46.8577
215.037
7.30065
60.7027
36.7182
44.1293
53.0901
42.0243
60.7923
201.284
46.0001
8.78433
52.3997
56.4788
109.984
119.968
57.4204
120.357
113.065
100.196
378.083
69.8452
108.977
55.2346
97.0403
9.28089
29.3143
76.3216
73.5941
21.8763
45.664
70.856
95.2792
58.3846
56.8617
10.0494
44.5886
29.6728
43.3869
161.939
22.7688
39.3431
10.7636
270.639
10.4764
15.6919
13.3623
145.527
201.049
112.085
24.0511
62.1281
62.0891
9.88689
9.16437
9.07991
115.933
8.59555
7.43843
60.2143
79.9217
32.5311
106.655
98.7273
159.279
64.1903
146.73
138.235
10.5143
169.126
12.1217
12.8042
10.176
51.5752
55.6552
52.18
35.6437
102.74
41.0688
77.1045
31.4976
27.2389
70.5336
56.3477
25.8778
25.8
18.2273
9.52844
4.94608
28.4061
78.327
34.8048
84.452
57.5096
358.245
20.9135
174.274
8.85282
115.937
42.7198
42.3382
38.3059
49.6929
8.68994
255.618
9.465
210.179
226.795
145.343
125.53
146.409
58.2334
58.674
45.604
466.561
317.363
211.587
17.6833
21.7362
31.8927
9.29876
136.207
73.3427
99.6542
136.611
53.3381
229.628
7.70105
9.31191
88.8325
8.62312
8.72196
85.2257
31.7999
121.54
67.471
9.42634
132.302
127.345
20.3711
13.6385
65.4883
23.3838
35.7658
8.65216
8.79671
127.535
49.8564
10.2711
98.4526
107.054
140.15
90.8022
170.86
224.785
57.5166
74.7756
49.7531
81.7725
93.4011
37.7357
258.885
336.365
295.747
45.5114
186.28
118.022
26.0676
5.53383
140.399
87.83
133.921
59.8755
97.0598
7.84175
32.3613
34.7077
484.829
66.7561
103.669
96.849
90.9203
220.569
30.2543
25.0818
67.6681
46.3733
226.884
15.6469
116.044
43.19
46.1867
10.4279
215.021
69.225
65.4111
16.1946
12.6942
23.6109
40.8916
38.0541
177.309
42.3543
10.9006
10.0713
9.89074
37.1946
249.853
52.635
241.423
60.0583
74.7854
18.8527
20.3383
64.2178
60.7818
9.10683
27.0239
147.33
73.399
92.2705
8.61269
63.9353
41.5654
63.3108
210.31
15.3074
108.552
104.419
62.8191
112.708
19.4971
105.551
70.002
106.135
57.7956
87.3385
105.86
60.5786
83.6766
195.526
222.698
21.684
13.6541
207.728
201.952
43.9246
241.82
180.86
114.194
126.054
56.8621
39.5487
50.9691
88.5265
38.9357
205.847
210.956
68.6917
157.571
86.5063
81.018
166.984
31.8421
45.6024
40.5445
71.4227
42.9657
51.8015
11.579
14.6661
57.7244
161.27
42.5344
67.3232
8.03365
5.86374
30.1103
211.36
74.6662
51.959
351.204
108.764
11.9929
141.353
22.8272
173.913
63.1078
242.368
56.8426
127.222
91.5981
49.0493
48.2013
39.3
200.503
38.5788
30.2371
31.8633
20.0811
29.26
20.8076
31.5995
89.6781
61.8537
90.0143
218.623
167.689
125.751
120.114
27.2544
61.6848
131.252
54.069
50.2135
292.689
24.1619
28.6621
197.958
131.34
74.2434
91.8353
8.94686
213.606
168.523
122.172
119.584
141.917
39.7644
160.332
158.298
174.656
179.072