/*--------------------------------*- C++ -*----------------------------------*\
| =========                 |                                                 |
| \\      /  F ield         | OpenFOAM: The Open Source CFD Toolbox           |
|  \\    /   O peration     | Version:  2212                                  |
|   \\  /    A nd           | Website:  www.openfoam.com                      |
|    \\/     M anipulation  |                                                 |
\*---------------------------------------------------------------------------*/
FoamFile
{
    version     2.0;
    format      ascii;
    arch        "LSB;label=32;scalar=64";
    class       volScalarField;
    location    "10";
    object      k;
}
// * * * * * * * * * * * * * * * * * * * * * * * * * * * * * * * * * * * * * //

dimensions      [0 2 -2 0 0 0 0];

internalField   nonuniform List<scalar> 
76020
(
1.15787
1.29072
0.712508
1.57316
1.01203
1.17581
1.10742
1.03034
1.1005
1.07677
0.686462
0.883841
0.724247
1.38719
1.05773
1.40114
1.45611
1.78441
0.823868
0.954205
1.22552
1.36266
1.46712
0.69779
1.27517
0.658703
0.727029
0.713381
1.23218
1.04447
1.42791
1.577
1.13663
0.691545
1.07835
1.50666
0.708699
1.31708
1.8834
1.5626
1.0752
1.0431
2.49398
2.45491
2.92269
2.2404
0.847644
0.897241
0.81342
0.983103
1.1723
1.34271
1.18197
1.17201
1.12112
0.793004
1.73424
1.63354
3.09902
0.738807
0.803436
1.53153
1.31602
1.01391
0.943272
0.972888
0.919014
1.33254
1.12203
1.00663
0.878954
2.5892
0.691497
0.787455
1.00182
0.89387
1.11345
1.09696
1.15888
1.2105
1.69359
1.24424
0.919651
0.913325
2.31712
2.82013
2.29673
1.79909
1.54197
1.08275
1.17494
1.85193
0.856773
0.930276
0.704966
1.78036
0.931359
0.969549
1.0897
0.918557
0.871648
0.674196
1.33094
0.728399
3.32872
0.78251
0.945224
0.952886
0.798197
1.07791
1.26569
1.38026
1.03144
1.65326
1.34452
1.0863
1.04753
0.73286
0.913141
0.982211
1.22238
1.49634
0.727848
1.67202
1.90287
1.18361
2.31667
0.778694
1.13996
0.634877
1.32098
1.77602
1.50117
1.44349
1.69467
1.56675
0.852897
1.30513
0.900638
1.05959
1.07354
0.9821
0.894672
1.24751
1.51923
1.25868
1.23823
0.729375
0.721473
0.703526
1.00414
1.549
1.21814
1.33928
1.94204
1.99159
1.04134
1.11698
0.876412
2.15744
1.80104
0.980003
0.983764
0.680248
0.705844
1.61976
1.10465
0.688784
1.04439
1.26024
0.844701
0.949485
1.00223
0.858065
1.18725
0.586463
0.973958
0.974254
2.59088
0.981383
1.58219
1.24231
1.22075
1.05512
0.805246
1.29648
1.09
0.989386
1.03981
2.14929
2.27285
1.02804
1.06237
2.29096
1.69372
2.45415
2.18615
0.771546
1.17874
0.780912
0.716707
1.00208
0.965436
0.71405
0.717589
0.794139
1.23202
1.24302
1.02135
0.761931
0.934339
0.638337
1.94113
1.10999
1.41787
1.11262
0.922771
1.18138
1.05548
0.841912
1.77528
0.854719
1.30105
0.965821
0.722246
1.40482
1.48059
1.43741
1.03233
3.09003
1.27446
2.21167
1.12337
1.16863
0.627791
2.06858
1.15898
1.27721
0.893163
1.88001
0.881321
1.539
0.715923
2.3459
1.43374
0.814552
1.32272
1.04272
2.67816
1.17345
0.936971
1.87396
0.978515
1.42292
1.28547
1.04069
0.713559
0.736752
1.24702
1.36029
1.31196
2.45048
0.817191
1.75314
1.17093
1.60103
1.46175
1.5209
1.3435
0.716449
1.85496
1.90671
1.19854
1.06869
1.43015
0.959717
0.873678
1.92778
1.84512
1.14054
0.984403
1.4922
2.17889
2.22079
0.826149
0.638799
0.600428
1.77795
1.20833
1.0558
0.661957
0.976659
0.61268
1.04894
0.729171
1.02747
0.778606
0.786848
0.867634
1.01959
1.01249
1.01114
2.24887
0.717273
0.702734
0.941101
0.902629
0.697236
1.07251
2.10547
1.7101
1.77462
2.07657
0.871927
1.37355
2.65962
2.07464
0.909698
0.869129
1.16583
0.76193
2.02387
0.687668
1.79799
0.939904
0.888709
0.95384
1.06032
1.33688
1.44723
0.983765
1.68928
2.48928
1.42468
1.24252
0.915334
1.28438
2.07093
0.738442
1.47643
1.90641
1.91429
2.47008
0.869721
0.700233
1.17975
1.15681
1.9459
0.891558
0.942188
0.913902
2.18127
0.708845
2.10451
1.56167
1.16795
1.40626
0.895451
2.41219
1.0378
0.934163
0.756658
0.746444
1.07913
1.89224
1.98645
1.04287
0.90398
0.709238
0.705442
0.695473
1.26857
1.11075
1.00082
0.716834
1.27428
1.25011
1.7657
1.07959
1.52813
1.49325
0.722064
1.69287
0.634848
1.21844
1.28671
2.80279
0.915074
0.934013
1.4801
0.698592
1.20946
2.17172
2.41006
0.732131
0.991153
2.14942
1.80588
1.21924
0.936959
2.34557
1.82941
1.95422
1.27826
0.901578
0.691427
1.8998
1.35679
0.776483
0.739215
1.19913
1.194
1.02235
0.993967
1.03561
2.157
2.30207
1.0261
1.07956
1.55576
1.18646
0.821973
1.32888
1.21682
2.4713
0.783828
1.84202
1.96855
1.3642
1.17545
0.964718
1.13721
1.43911
1.28248
0.685595
0.815457
1.061
0.878915
1.6307
1.64557
0.578831
0.696018
0.927932
1.78422
1.00163
1.86661
1.2362
1.69264
1.7189
0.738201
1.0551
1.79077
1.95599
2.01337
1.8135
1.18853
3.06755
2.9454
0.792562
1.46162
1.06554
1.39385
1.04382
1.19879
0.729845
3.13079
0.736372
0.694323
1.10958
1.10575
0.749143
0.75673
0.947171
2.06951
1.12039
1.12649
0.684642
0.777144
2.2876
1.22536
1.27785
0.97681
0.995962
1.55256
1.05095
1.38208
0.755851
0.690458
0.975007
1.1252
0.890964
1.08897
1.28974
1.69815
1.34294
0.703161
1.2999
0.578249
1.0442
1.52656
0.903652
0.960897
0.655125
0.662119
1.17432
1.05209
1.00624
0.781905
0.991148
1.24871
0.683888
1.03938
1.288
1.19276
0.685934
2.74764
1.74717
1.47243
1.26616
1.92862
1.96979
1.8715
1.37781
1.36715
1.51402
1.00431
2.19923
1.52049
1.36508
0.696462
1.25869
1.38301
1.42578
1.89757
1.7877
1.35402
1.52589
1.00859
2.1266
0.692025
2.49858
2.14046
2.39377
1.55036
0.691726
1.82917
0.934791
1.2322
0.957892
0.668621
1.29618
0.684542
1.25469
1.27937
0.976649
2.44974
0.912783
1.36744
1.81695
1.76126
0.663175
0.688494
0.998974
0.735599
0.914264
0.768456
2.24972
0.905939
0.737718
1.68013
1.5169
0.733436
1.17436
1.80015
2.0549
1.41195
1.28847
2.20814
1.24688
0.627146
0.687623
0.744909
1.06475
1.1178
2.23182
1.34869
1.0522
0.757242
0.762982
1.01709
1.36542
2.19718
0.891634
1.03259
1.76151
1.26079
2.14849
2.22385
1.44453
2.76073
1.14363
1.46416
1.74876
1.11295
1.01069
1.03501
1.43098
1.37757
0.89845
0.89327
0.952915
0.87359
1.9295
0.689161
0.716982
0.730929
0.694948
0.651945
0.740802
1.82136
1.48238
1.46723
0.820528
1.78443
0.938565
1.19232
0.678689
1.27617
1.4511
1.11671
2.90694
0.904978
1.769
1.45348
0.732036
1.62083
1.67249
1.17509
0.798952
0.817643
2.11109
1.54232
0.906439
1.6032
0.91896
1.14992
0.882237
1.13013
1.38863
1.01201
1.06999
1.08534
1.03315
1.19149
1.92917
1.17518
2.13421
2.15057
0.690907
1.36749
1.49341
0.728215
1.28741
1.61655
2.27188
2.21595
1.30736
1.4153
1.93816
1.48342
0.901878
1.04854
1.09432
0.934731
1.12363
0.730308
0.683929
1.09253
1.20567
0.974882
1.33635
1.24511
1.16987
0.976249
1.27256
1.00957
0.692086
0.710605
1.45261
1.75852
1.91039
1.87276
1.55019
1.07895
1.05738
2.41582
1.25032
0.642337
1.21217
0.650022
1.40518
1.40031
1.77857
2.34684
0.680746
1.16893
0.840698
1.53748
0.973882
2.57598
1.14615
1.34664
1.64831
0.71509
1.07069
1.34226
0.694646
0.941548
0.939598
1.90564
1.06434
1.49279
2.97513
1.17058
1.41786
1.48827
2.87187
2.69728
1.32438
1.05668
0.674245
0.689636
0.855983
0.665413
0.718006
0.708959
1.53563
1.20668
0.714654
1.46752
1.3236
2.7241
0.628795
1.58835
0.925047
1.95857
1.82532
0.637937
0.688504
0.931993
1.0179
1.23021
2.40102
0.955591
1.86205
1.19035
1.53838
1.81996
1.45942
0.922455
2.28172
1.11444
1.98897
1.56958
1.6048
1.55167
0.931417
1.15425
2.04113
2.51566
1.06835
2.69418
0.987324
1.10703
0.887961
0.888117
0.977818
1.24543
2.06724
1.40983
1.36265
0.913799
0.89814
1.13726
1.29744
1.23805
1.70328
1.09906
3.55609
0.948632
0.858844
0.762302
1.24245
0.720628
1.24771
1.91211
2.47046
1.22434
0.656646
0.998991
0.651099
2.12131
2.09466
1.43612
0.910746
1.30092
0.733898
1.61855
0.930452
0.966641
0.731099
0.748472
0.717198
2.03336
1.45885
2.61536
0.728187
1.4326
1.11683
1.29384
1.63994
0.953473
1.97808
1.14147
2.71326
2.27596
1.19104
1.11515
1.1301
0.764466
0.677866
0.711374
1.85004
1.64734
0.682974
1.10454
0.959869
1.00764
1.36806
1.20496
2.04392
2.16078
0.791264
0.912389
0.913968
1.15512
2.48723
2.62757
2.0355
0.721602
0.696104
0.908063
1.20872
1.15797
2.32796
0.933518
1.03869
0.721442
0.724451
2.45028
0.614667
1.31657
0.776055
0.996567
1.43103
1.17598
1.0724
1.27231
0.69281
0.704916
0.76938
1.26528
0.664301
0.992886
1.98041
1.21408
1.05606
1.28088
1.3671
2.38484
0.573033
0.761434
0.68419
0.952533
0.699696
1.20818
1.17972
1.72459
1.38648
1.01681
2.17887
0.91899
2.08613
1.55445
0.61293
0.683588
1.08044
1.18819
0.591921
0.72175
0.714753
1.00868
0.770712
1.17914
0.682775
1.3761
0.926123
0.948389
1.34543
0.829931
0.845128
1.08446
1.4261
1.68388
1.47477
0.621068
1.03471
1.35984
0.66498
1.03
2.52951
2.99399
1.05754
2.34233
0.710585
0.671927
0.705308
1.81859
1.5423
1.55225
1.37207
1.14927
1.44998
1.20744
1.20371
1.05926
1.33021
0.691436
0.754169
0.745773
2.29639
1.28854
2.47477
2.65212
1.08562
1.96166
1.89449
2.78147
1.0385
2.01405
0.748984
1.40765
0.76036
0.749604
2.58082
2.23429
1.27993
1.5378
1.2822
1.26483
2.14284
0.695844
2.05625
1.4243
0.652391
0.716689
0.730211
0.761237
1.10698
0.694989
0.645194
0.72766
0.749406
1.22463
1.26419
1.20544
0.890877
0.810086
1.87571
1.73328
0.932251
1.20214
1.09515
0.849699
1.80105
0.824114
2.14183
1.01739
1.29873
0.994032
0.972347
1.80236
1.69975
0.944585
0.685639
0.708409
1.2032
0.752227
0.726653
0.800585
0.970756
1.45013
2.11174
2.30637
0.801767
1.82088
0.728164
1.57873
1.79422
0.99451
2.9757
1.06399
3.07799
2.15551
1.24296
1.1225
0.996401
1.46481
1.24638
0.634124
0.659013
1.12075
2.4374
0.924889
0.688898
1.34804
1.87599
0.829188
0.706143
1.08515
1.16777
2.63484
1.00948
1.01032
0.623702
2.29399
1.17323
2.75726
0.724599
1.00223
1.45629
1.49608
1.1549
1.40637
1.05821
0.788561
0.692768
1.81717
0.711535
1.81487
0.984298
2.36712
0.654518
2.83492
1.34053
0.702788
0.742915
1.29265
1.16089
0.793271
1.21273
1.13508
2.87904
0.681391
1.14707
2.83732
2.98521
2.88481
1.57519
2.68098
0.897764
1.86143
1.214
1.18799
0.637171
1.60901
1.47503
1.20119
1.10773
2.44594
2.05756
0.926716
2.37512
1.70117
2.04062
1.34454
1.44711
0.744815
1.98151
1.04544
0.777985
2.1966
1.43576
1.00028
0.689366
1.20245
3.20115
0.665034
1.5103
1.70591
1.90901
0.673681
0.650476
0.858726
1.34978
0.693961
0.888843
1.80717
1.30595
1.80424
1.51581
1.07081
0.768252
2.34757
2.43335
2.05703
1.75243
2.01388
2.06766
2.14644
3.26913
1.35023
0.942561
1.41819
1.39371
2.26882
1.05676
1.14278
1.21269
1.20969
1.16091
1.16493
1.22301
0.943018
1.32703
0.909753
1.31593
1.15017
0.778223
1.05551
1.83826
1.23543
2.15129
1.43299
0.56607
2.13292
1.10629
1.40545
0.731656
1.06837
0.99083
0.789356
0.858502
2.08513
1.16696
1.62989
0.962238
0.729003
1.51105
0.721774
1.47327
1.47697
0.976717
0.955609
0.775505
0.596461
0.90818
1.93534
1.06389
0.708998
1.4762
1.65288
1.08615
1.21489
1.63906
1.27974
1.60972
0.764752
0.820456
1.21258
0.722243
0.66596
1.37604
1.25275
0.756367
1.94759
0.628517
1.51288
0.810929
1.07509
1.29264
1.28816
1.26451
2.72097
1.16368
0.720376
1.20072
1.03823
1.55842
1.84091
1.23117
1.3763
1.30691
1.20559
3.07685
1.66286
1.91143
1.44885
1.3615
0.766476
0.831103
1.52165
1.75544
0.760235
1.5097
0.916978
1.81965
1.31127
1.18906
0.692896
0.79539
0.687666
1.19005
2.05819
0.834148
0.959211
0.684906
2.9647
0.774143
0.665364
0.682078
1.52811
2.07334
2.03016
0.865736
1.06038
1.0689
0.654961
0.708697
0.709121
1.50701
0.785823
0.700338
0.968774
1.25989
1.18516
1.39849
1.51521
2.01791
1.20056
1.7206
2.00438
0.692049
1.86296
0.693638
0.660805
0.683821
1.13599
1.25142
0.868306
0.745899
2.25948
1.07065
1.10269
0.526464
0.89887
1.06674
1.17123
0.771472
1.12077
0.699589
0.697102
0.580805
0.921595
1.0068
1.07856
1.14645
1.3488
2.98152
0.734543
2.1281
0.777279
2.08606
0.898692
1.13336
0.668977
1.13195
0.756677
2.27299
0.784334
3.05187
3.07262
2.00726
1.73221
2.39607
1.28703
1.32623
1.07268
4.20602
2.84445
1.30092
0.650362
0.887468
0.974918
0.751217
2.02538
1.55249
1.67492
0.945247
1.1972
2.49587
0.677494
0.675733
1.76227
0.744544
0.743501
1.47715
0.97718
1.66369
1.20234
0.764784
2.32361
2.3211
0.714612
0.66307
1.28339
0.91054
1.13125
0.72571
0.729428
1.65914
0.869448
0.719407
1.40096
1.02228
1.77355
1.51059
2.83289
2.6914
1.28133
1.70651
0.846183
1.54508
1.62817
1.14562
1.47232
2.64161
2.70745
1.06571
0.985586
2.36222
0.797987
0.590421
2.14652
1.53934
2.44786
1.27829
1.24111
0.716096
0.974813
0.662262
3.80707
1.20666
1.61443
1.58348
1.19212
3.18211
0.987387
1.02996
1.39333
0.979209
2.83636
0.722078
1.65535
1.2035
1.10019
0.787403
2.93032
1.26041
1.25858
0.669445
0.665614
1.04706
1.06023
1.12764
1.61411
0.96242
0.742642
0.804184
0.817936
1.03794
2.62321
1.01851
2.33529
1.0204
1.0723
0.810808
0.813408
1.17518
1.26664
0.69363
0.750911
2.05181
1.06074
1.54461
0.707829
1.27186
1.2969
1.52598
2.35366
0.618927
1.92963
1.62186
1.25322
1.61143
1.03869
1.64699
1.34793
1.54576
1.1623
1.6734
1.95003
1.31927
1.53612
2.49231
1.40379
0.64474
0.721958
2.41945
2.13858
1.11445
2.5591
2.61796
1.16085
1.69706
1.18687
1.20508
0.999528
1.34443
0.992646
3.08006
2.67943
1.46721
2.18569
1.67974
1.82276
2.40002
0.7227
1.0294
1.08585
1.17146
1.03499
1.2183
0.643768
0.656951
1.0692
1.69144
0.662143
1.57985
0.72368
0.60294
1.00054
1.25843
1.24705
1.07477
2.75218
1.90874
0.736402
1.73394
0.81019
2.15389
1.03481
2.23182
1.34757
1.14781
1.73139
1.27874
0.962471
1.3763
1.30859
0.951298
0.819394
1.19731
0.701434
1.21593
0.55945
0.930948
1.04437
1.1897
1.37857
2.12064
2.02389
2.51046
1.40918
0.931745
1.04224
2.45597
1.15601
0.710246
2.36043
0.739307
1.04595
2.91136
1.96293
1.43397
1.0522
0.715838
2.68791
2.02369
2.38067
2.65371
2.60766
1.11817
2.23491
1.99047
2.18731
2.43839
2.58971
0.994827
1.10838
0.556291
1.72464
1.6554
2.37033
1.36331
1.42409
1.02412
1.61037
0.841305
1.15003
0.688242
0.980205
1.41027
0.860601
0.918975
0.947482
1.61275
1.19911
0.845626
1.17346
0.555979
1.27628
1.22407
0.84582
1.4652
0.785394
1.08921
1.61443
1.08338
2.42833
1.19796
1.26518
3.03094
1.60376
1.4613
1.02808
1.48481
1.91875
1.69202
0.732284
1.6247
1.85662
0.904334
0.881542
1.11989
1.90964
1.82403
1.60564
2.30948
1.50778
2.02016
0.765065
1.12059
1.80904
1.73078
1.41113
1.45131
0.671559
0.78157
0.880927
1.44255
0.752078
1.37091
1.67612
1.78942
1.2322
0.809553
1.15404
1.34625
2.20046
2.0889
1.59926
0.936507
1.10455
0.845324
0.846364
1.20485
1.03612
1.25625
2.15846
2.02961
0.564423
1.29089
1.52983
1.66526
1.04067
1.38729
0.84367
0.572916
1.48924
1.3644
1.46182
1.29194
1.52433
0.925708
1.98749
0.679345
1.0058
1.92098
0.822827
1.22206
1.7014
1.19989
0.753234
1.70084
1.9368
1.11327
2.87032
2.71115
1.34471
0.704562
0.713502
0.925754
0.645975
1.18389
0.90173
0.909522
2.97395
0.784426
1.16097
1.51769
1.85663
1.1367
2.79019
0.816418
0.809228
1.98181
1.54962
1.78857
1.73625
1.72928
0.745445
3.09239
1.18887
2.03872
1.51826
0.748712
1.22135
1.18011
0.63714
2.05651
0.965983
0.703363
0.830519
1.38635
1.85015
0.932864
1.20168
2.26997
2.33153
1.63549
1.44214
1.4254
1.6283
1.11031
2.85947
1.1012
2.26853
3.06699
1.09406
0.905312
0.863489
0.752855
1.52009
0.649291
0.636416
2.66266
2.57042
1.58202
1.20581
0.685321
1.97653
1.26512
2.13891
1.30774
0.895252
0.86999
2.53561
1.17718
0.698566
2.96899
2.7474
1.40699
1.46029
1.51472
1.70045
1.19349
0.90424
1.65072
0.880338
1.38199
2.38001
1.08871
2.04638
0.81288
1.19678
0.827154
0.522058
0.602673
1.39918
1.33643
1.00494
0.665687
0.605845
0.987575
1.01555
1.01093
0.997318
1.20733
1.00789
1.6245
2.71141
2.78295
2.04242
1.32245
1.11388
1.42105
2.7131
0.797033
1.22469
1.30266
1.19381
1.47534
1.44137
2.31802
1.61795
0.669714
1.05184
0.834493
1.46277
1.70256
1.24561
1.45304
0.639252
2.05065
0.995912
0.722986
0.983018
1.05363
0.908641
1.89055
1.5566
1.12636
1.11569
2.3672
1.61091
0.927631
1.17546
1.04497
0.983535
1.20006
2.65614
2.95325
1.68752
2.15
1.25463
1.22277
3.92902
0.689116
0.695044
1.62432
1.32172
0.862562
1.41753
2.6012
1.0201
1.03425
2.49776
1.65824
1.25556
2.7777
3.4461
1.38656
1.48889
1.30192
0.857108
2.72539
2.52923
3.09705
1.54175
0.71396
1.77668
2.88897
2.52226
2.44104
2.26453
1.12515
1.00513
0.679922
1.57975
1.03637
1.33493
1.25949
1.62335
1.07948
1.76977
1.20235
1.38831
1.40273
1.43269
1.53789
2.47881
1.50898
1.88032
1.26482
0.942534
1.4203
0.947088
0.891732
0.912118
0.989595
0.979622
1.08346
0.774103
1.25659
1.24324
1.02438
0.921549
0.898895
0.79306
1.15171
0.919851
0.785138
1.28968
3.0383
0.860568
1.14545
0.970214
0.697643
0.717702
0.976946
1.62852
1.26878
1.12091
1.48832
1.3337
0.940607
1.67833
1.10081
1.36207
0.958167
1.46433
3.45593
0.744822
1.37444
1.27897
3.73149
1.33461
1.73579
2.18691
2.58887
1.18954
1.69733
0.909193
0.909611
1.00725
1.11388
0.609068
1.09539
1.12686
0.884134
1.32228
0.974459
1.052
1.17301
0.999479
0.911136
1.15696
2.19445
1.36576
1.46519
0.831654
0.896164
1.24191
1.53606
1.97578
2.46529
1.06788
2.69338
1.76486
0.826626
1.17292
1.5679
0.653772
0.714429
2.84228
1.88857
1.00384
1.02718
0.829111
1.24689
1.03286
0.929164
1.54218
1.75499
1.89251
1.11206
0.966519
1.05207
1.4693
1.11746
1.20248
0.697306
0.704742
0.819743
2.27045
2.10768
2.29023
1.99844
1.0163
1.29013
1.2868
1.37997
1.03334
1.11148
1.76815
1.72395
1.15606
0.963278
1.54635
1.30207
2.47844
2.82514
3.43148
0.737557
1.27578
1.65967
0.919117
1.47459
3.14277
1.14492
1.05041
1.41941
1.02095
1.91355
1.31579
2.18138
2.10937
1.89948
1.09007
1.21173
1.62329
0.797282
1.09215
1.45917
2.74414
3.1563
0.984209
2.11617
1.99063
0.963257
0.901922
0.950588
1.11056
1.4682
1.86828
1.1968
2.93664
0.718314
1.82737
1.47762
1.3557
1.22888
1.99902
1.88473
0.998914
2.28846
1.01335
2.85358
3.03215
1.05688
2.18667
0.688218
0.688737
0.683626
0.613267
1.12248
3.18203
1.20135
0.91489
0.970527
1.01873
0.981621
1.0563
0.887161
1.22947
0.989711
0.750141
1.93444
1.96594
1.0111
1.08863
0.903701
1.03306
1.51405
1.63684
1.86696
1.96758
1.23437
1.66799
0.835491
1.99524
2.23521
1.05362
1.48606
1.48605
1.21713
1.90009
2.33382
0.798548
0.869047
3.19112
0.991653
0.714777
0.622584
1.63777
0.835325
1.88299
1.52185
0.791016
1.97643
1.03223
1.87318
1.43725
1.48337
1.12739
0.753609
2.58352
1.5956
1.17974
0.980122
0.968513
0.98595
1.09362
0.67823
0.880412
1.37985
1.06293
1.55841
0.961552
2.24687
1.5561
1.28245
1.18294
1.24628
1.35921
0.954997
0.974267
0.694911
2.1883
0.989188
1.70219
1.27582
1.5456
0.628577
1.24188
1.43313
2.25537
2.41759
1.12972
1.62795
1.38438
1.96202
1.03251
1.67374
1.5235
1.22066
1.17329
1.36497
1.46897
1.25766
2.86582
1.4097
1.66689
1.24216
0.88564
1.06548
1.6763
2.39369
1.16228
1.20497
1.23368
0.978878
1.07977
1.14638
1.25788
1.55042
2.18003
1.04075
1.18133
1.26702
2.39962
1.27327
1.38133
0.943209
1.3513
0.938591
1.51815
1.25164
1.37774
2.33851
1.42953
1.37306
0.92717
1.38657
1.40757
2.59206
2.14121
1.42663
1.21402
1.13944
1.26703
1.5033
0.791901
1.46719
1.33321
1.14361
2.36927
1.97337
2.22676
1.26417
1.33251
0.998583
1.27408
1.60083
1.65959
0.985047
0.868513
0.947304
1.20348
1.13445
1.15826
1.12507
1.94395
1.48128
1.02105
1.21355
0.92602
1.4709
1.14848
1.23358
1.38861
1.12562
1.06286
2.2049
1.26622
1.27048
1.44757
0.995729
1.08497
1.35261
1.21896
1.44964
1.32963
0.401308
1.7282
0.897828
1.40431
1.36603
1.54378
1.60382
2.01682
0.405633
1.27216
0.387225
1.78811
1.04186
1.56701
1.98024
2.76838
0.801144
1.13403
2.10771
1.78917
1.51895
0.462165
2.91325
0.434938
0.564103
0.440176
1.81197
1.17317
2.08959
2.22151
1.54052
0.400309
1.62063
2.06242
0.405739
1.34075
2.38208
2.15301
1.79043
1.38962
4.18271
3.66737
5.12833
3.83114
0.873851
0.854937
0.910549
1.2636
2.02782
1.61666
1.8362
1.41808
1.00907
0.921896
2.37256
1.98587
6.81793
0.959506
0.958856
1.66264
1.25427
1.66276
0.987798
0.818133
1.85753
1.76486
1.46813
0.9594
1.17545
4.11099
0.424578
0.688633
0.913467
0.894587
1.56106
1.12577
1.14589
1.07756
2.35309
1.59316
1.08393
0.950644
3.06767
4.17616
3.16137
3.26152
2.16805
1.26515
1.31274
3.7829
0.848408
0.986117
0.439729
2.24428
0.964773
1.04861
1.16449
1.14635
0.928831
0.573041
1.41481
1.17897
5.92077
0.402965
0.810328
0.891796
0.408557
1.25965
1.55348
1.67498
0.884316
2.30323
1.28913
1.30008
1.19544
0.372777
0.98555
0.882917
1.82061
2.15371
0.525525
2.52673
3.96556
1.82437
3.10184
0.651502
1.08807
0.872154
2.31672
2.51882
1.94275
1.82477
2.41204
1.98948
0.787915
1.96077
1.11897
1.33528
1.27233
1.13305
0.932564
1.33322
2.09731
1.58929
1.45059
0.457673
0.393734
0.430192
1.41786
2.5557
2.09424
2.06282
2.97293
2.62897
1.17651
1.14732
0.948583
3.43146
3.8503
1.24669
1.22898
0.738504
0.61811
2.03728
1.11652
0.396216
1.43508
1.50036
0.896562
0.936897
0.988885
0.910299
1.20952
0.546738
0.877705
0.846327
3.55663
1.34652
1.87164
1.2943
1.433
1.54858
0.756929
1.3763
1.13754
1.99739
1.78673
3.44417
3.78752
1.21965
1.4503
3.54428
2.41385
3.05753
3.36809
0.380955
1.42661
0.835808
0.415742
1.18846
0.978808
0.437301
0.51598
0.768497
1.28622
1.30858
1.42776
0.366057
0.964954
0.475134
4.16255
1.20184
2.37008
1.23944
0.973876
1.26094
1.23417
0.965381
1.83152
0.573777
1.68073
1.21957
0.358258
2.21389
1.90979
1.80238
2.21301
6.45238
2.19224
3.40862
1.38865
1.731
0.480758
2.88643
1.99733
1.37361
0.836839
3.18838
0.918282
2.63489
0.463352
3.17722
1.62728
0.803204
1.74116
1.303
3.279
1.77127
1.02884
2.92484
1.1966
1.83531
1.57151
1.76937
0.396954
0.359495
1.43204
1.81118
3.37685
3.21116
0.703623
2.33488
1.4068
1.72267
1.76039
1.61368
1.52886
0.431112
2.61707
2.65859
1.39829
1.03457
1.60421
0.821337
0.882273
3.2575
2.76008
1.58964
1.3493
1.91617
3.97435
2.81731
1.45242
1.15073
0.4814
2.0828
1.28494
1.03664
0.620531
0.835051
0.492759
1.44989
0.417781
1.62588
1.04142
0.846424
0.9482
1.3788
1.22115
1.28795
2.92258
0.44123
0.368023
1.03864
0.99843
0.375258
1.48411
3.63083
1.59845
2.11471
3.2672
0.965197
2.00718
3.76595
2.50505
1.03943
1.02187
1.42263
0.653889
2.84006
0.390854
2.81855
0.987609
0.941822
1.30373
1.68631
1.63217
1.68115
1.12952
2.52839
3.45824
2.50094
1.49421
1.13669
1.56971
3.56667
0.730288
2.00736
3.68003
3.36876
6.21577
0.922618
0.392416
1.16007
1.21652
2.47691
0.9576
0.788088
0.892411
3.33189
0.404912
3.44096
2.31035
1.4816
2.02216
0.768378
2.96402
1.44723
0.883239
0.496919
0.568823
1.02486
2.44663
3.51836
1.65151
0.951579
0.375359
0.379723
0.373234
3.19567
2.34319
1.02856
0.366793
1.09633
1.8601
4.37215
1.75261
2.03797
2.0096
0.573936
2.21844
0.47791
1.67236
1.71848
6.56629
0.919932
1.02167
2.58333
0.402849
1.86822
3.33751
3.26821
0.519265
1.3816
4.0824
2.77301
1.65543
0.745462
4.1295
3.7271
4.00341
2.07193
0.985652
0.603291
2.87683
2.25314
0.407314
0.672691
1.30548
1.27475
2.07969
1.12669
1.02735
2.72958
3.53939
1.84279
1.05713
1.89265
1.56579
0.864934
1.74559
1.98249
3.45994
0.431329
3.37092
4.0393
1.43225
1.34495
1.02821
1.27722
1.66266
1.56972
0.396825
0.791526
1.20923
0.904381
2.27385
2.34109
0.90154
0.409947
0.839367
2.0006
1.10278
2.19169
1.43367
2.06884
2.20427
0.387457
1.67276
3.79479
2.73916
2.74338
2.20401
1.40719
6.32381
6.07195
0.896207
1.77043
1.06673
1.435
1.08717
1.63254
0.405728
5.87948
0.654969
0.555204
1.30481
1.21197
0.444725
0.415241
1.05172
3.42864
1.47354
1.52679
0.539944
0.396373
3.26068
1.49396
1.44841
1.08903
1.52004
2.04074
1.21868
2.12564
0.627719
0.47374
0.980934
1.40849
0.818698
2.07483
3.13991
2.41466
2.21773
0.560872
1.81251
0.495091
1.42148
2.10121
0.966934
0.985042
0.57021
0.553065
1.59769
1.38537
1.27761
1.87162
1.18925
1.46685
0.647262
1.20745
1.64543
1.43033
0.736861
3.86676
2.5241
2.24624
1.88183
3.12801
2.70973
2.54247
1.32484
1.32611
2.71294
0.979779
2.79404
1.69087
1.60764
0.37689
1.31563
1.34886
2.53
3.65216
3.72269
1.85812
2.25587
0.974986
3.90686
0.393652
3.71288
3.27375
3.36845
1.93005
0.45868
2.57283
1.34316
1.38931
0.95768
0.463808
1.72275
0.405735
2.71987
1.80843
1.34019
3.14564
0.949193
1.59667
2.16194
3.41946
0.482903
0.505235
0.825984
0.36344
1.32042
0.410507
4.09523
1.12099
0.359362
2.51597
2.46339
0.57156
1.62894
3.10022
3.07673
2.00654
1.57699
3.77657
1.40037
0.434893
0.616187
0.611034
1.20422
1.20904
3.35472
1.2411
1.76054
0.376105
0.382814
2.43808
1.81282
4.05855
1.1474
1.30438
2.91017
1.45049
2.93709
3.2387
1.95691
5.57193
1.36516
1.95024
2.3526
1.33966
1.05982
1.43721
2.08975
2.15708
2.1498
1.00076
0.973346
0.816008
2.44634
0.396268
0.383139
0.390471
0.449643
0.483353
0.457572
2.54071
2.01692
2.08744
1.03207
2.60196
0.861749
1.1712
0.472943
1.15337
1.77071
1.22292
5.21718
0.897906
2.49138
1.83915
0.359074
2.3453
2.30873
1.37787
0.52543
0.640181
3.23941
2.49803
0.970713
1.8739
0.912048
1.66703
1.3031
1.35503
2.09898
1.05759
1.10608
1.70194
1.42746
1.08602
2.5812
1.64766
3.06347
3.17786
0.39779
1.96981
2.03254
0.383528
2.18709
1.77381
5.07623
5.70924
1.69237
2.73841
2.87833
1.98308
1.31405
1.86716
1.12159
1.00594
1.21083
0.617869
0.635336
1.43199
1.72918
1.16615
2.05608
1.4498
1.26848
0.994012
1.81362
0.982289
0.439711
0.426185
1.91994
2.33925
3.19105
3.48396
2.29307
1.29351
1.31791
3.10532
1.42277
0.478609
1.43265
0.677823
1.92762
2.30304
2.61289
3.32264
0.477104
2.15171
0.7995
2.20777
1.58359
3.72285
1.51194
1.90908
3.40766
0.46696
1.16469
1.58212
0.526503
1.7495
1.33754
3.09241
1.26617
1.96704
6.64469
1.58718
2.41444
2.34019
3.67695
4.14985
1.93981
1.12127
0.433051
0.395466
0.762833
0.509364
0.463144
0.457656
2.08809
1.45
0.43566
1.98562
1.66575
5.96772
0.702167
1.79758
1.01377
2.1761
1.8827
0.552097
0.533897
0.927829
1.49295
2.05845
2.88645
1.07077
3.06549
1.71579
3.75905
3.92668
2.55347
1.39624
5.07379
1.27868
3.14592
1.97107
1.97204
1.90602
1.00677
1.52327
2.73579
4.12517
1.31734
4.16058
1.24077
1.36917
1.19413
1.01512
1.53977
1.37347
2.97716
2.08092
3.60617
0.914172
0.921373
1.06576
1.95168
1.65864
2.22483
1.5144
6.81637
0.835883
0.907941
0.399647
1.3558
0.358519
1.7027
3.25152
4.28512
1.54343
0.543892
1.44727
0.733214
3.96569
2.99853
2.67759
1.37439
1.4172
0.360473
2.53856
1.08622
0.902608
0.663577
0.614783
0.37031
3.77281
2.52508
4.39092
0.361433
1.87663
1.21145
1.42031
2.40187
1.13317
3.94861
1.30035
3.91037
3.22716
1.21659
1.11758
1.19927
0.501009
0.709795
0.634381
3.36763
3.32103
0.56196
1.52
0.942567
1.16434
1.60926
1.22226
3.23017
3.01978
0.411421
0.94854
0.849752
1.46856
5.65167
4.03621
3.3545
0.627141
1.04981
1.05163
1.8554
1.36893
3.87497
1.08588
1.41169
0.751202
0.671463
4.62995
0.486553
1.96311
0.44071
1.34315
1.80112
1.62027
1.10882
1.42796
0.396926
0.426619
0.789392
1.53474
1.47945
1.09385
2.92793
1.66678
1.25798
1.69103
1.72214
5.07409
0.549403
0.910713
0.420218
1.18008
0.443533
1.24449
1.42458
2.62326
1.57007
1.12827
2.85486
0.979091
4.55093
2.01598
0.451822
0.415742
0.921962
1.30798
0.49486
0.459116
0.904588
1.28391
0.395178
1.31624
0.393407
1.66376
1.06036
0.995211
1.70946
0.655535
0.827031
1.59927
1.91835
2.40139
1.88512
0.476307
1.12595
1.37147
0.483539
1.22117
3.81123
3.90422
1.11387
3.31934
0.43953
0.651957
0.425936
1.88035
2.6434
1.96435
1.58136
1.77851
1.82638
1.62798
1.66586
1.37296
1.42988
0.394814
0.385438
0.397537
3.43455
1.90251
3.35197
3.41919
1.72086
3.20145
3.39944
6.98082
1.05533
3.00355
0.715327
1.90623
0.38958
0.369225
4.54162
4.0462
1.74973
2.93508
1.50183
1.53547
3.49627
0.442588
2.46018
1.69786
0.546819
0.541339
0.465587
0.414347
1.21611
0.658863
0.749052
0.432844
0.38254
2.23929
1.84408
1.41811
0.831467
0.634155
2.99648
2.50405
1.33581
1.35157
1.24803
1.16937
2.73011
0.862151
3.24949
0.951103
1.4458
0.93958
1.34827
2.72249
3.56222
0.956555
0.413174
0.706717
1.3322
0.41527
0.407318
1.18934
1.61707
1.71027
3.97912
3.6811
0.782863
2.2153
0.655212
2.83852
2.14363
0.960243
5.37613
1.17772
6.30829
2.69658
1.41783
1.35912
2.08925
1.4772
1.48903
0.691494
0.643154
1.16072
3.29469
0.975031
0.41751
3.08701
3.8609
0.817654
0.651923
1.3353
1.32438
3.93901
1.48348
1.20354
0.495047
3.0335
1.82362
4.37682
0.527697
0.855846
1.92759
2.15623
1.47325
1.81463
1.01946
1.2386
0.380992
2.02719
0.362132
2.54515
0.956448
3.16593
0.479011
4.78168
2.93452
0.463043
0.426414
1.87617
1.50764
1.0661
1.20042
2.09316
7.60202
0.408657
1.40662
4.19487
4.04954
3.59102
2.20436
3.33235
1.34861
2.11671
1.54167
1.39323
0.5389
2.46288
2.69671
1.65187
1.83003
6.02107
4.19194
0.857577
3.63474
2.68422
5.0215
1.35514
1.77359
0.363734
5.0617
1.55417
0.611291
3.66431
2.36039
1.23808
0.41958
1.40273
4.3848
0.486831
2.17085
2.4486
2.76657
0.665006
0.728395
0.895679
3.5019
0.519069
0.847833
2.1728
1.88228
2.92211
1.87905
1.63755
0.421191
3.49295
3.38297
2.79974
2.07937
3.28885
3.49847
3.22154
7.05806
1.60624
1.34081
1.81611
3.24307
3.05726
1.11532
1.64696
1.26284
1.27439
1.30347
1.31998
1.62215
1.18306
1.38121
1.47713
1.52242
1.47503
0.419333
1.67868
2.49971
1.92073
3.27066
2.13902
0.51546
2.80477
1.25584
1.74372
0.450823
1.1628
1.3118
0.812746
0.643418
3.65055
1.30554
2.29578
0.971697
0.863094
1.73096
0.389123
2.1179
2.08171
1.10189
0.917434
0.519032
0.588846
2.53054
2.62494
1.19107
0.388595
2.81145
2.35728
1.15716
1.58834
2.17347
1.58083
2.33034
0.479763
0.774138
1.6147
0.962305
0.760011
1.9086
1.82004
1.55381
4.03281
0.476277
1.86206
0.934918
1.31782
1.40847
1.71235
1.43312
4.76073
1.27097
0.381827
1.43152
1.47177
2.06849
2.34395
1.41538
2.53784
2.39959
1.3451
6.88229
2.16141
2.86566
1.61867
1.62481
0.378637
1.04899
2.13881
2.46485
0.639667
1.80737
1.36019
1.89751
1.74448
1.61512
0.416113
1.6524
1.07836
1.3797
3.50342
0.747046
0.878568
0.472722
5.41421
0.469798
0.563904
0.572213
2.31013
3.00538
2.96598
0.86563
1.05531
1.45077
0.516276
0.368073
0.366394
1.91498
0.446375
0.465134
1.42409
1.9486
0.896452
1.94015
1.62953
3.64616
1.77092
2.90317
3.33826
0.415533
3.43947
0.516318
0.610778
0.438708
1.27957
1.34041
1.46011
1.32833
2.82752
1.31497
1.11118
0.841486
0.961903
1.49711
1.44792
0.861057
1.08927
0.664124
0.412494
0.491664
0.931892
1.99993
1.12849
1.96483
1.84848
5.57841
0.956788
2.45576
0.400689
3.3021
1.00528
1.80223
1.00335
1.49013
0.367784
4.95796
0.405808
4.56302
4.85609
2.56258
2.18568
3.6785
1.61799
1.74247
1.27013
7.61672
5.94968
4.12159
0.591776
0.911787
1.35923
0.37187
3.18036
2.07302
2.58173
2.0455
1.20594
3.40009
0.435365
0.473093
2.14598
0.355734
0.355114
2.29983
0.927271
2.17196
1.88987
0.394415
3.33158
3.22146
0.768324
0.60609
1.49021
0.90027
1.12396
0.354597
0.357356
2.86084
1.50464
0.42913
2.07528
1.49813
2.80662
2.00426
3.93229
3.88762
1.36028
2.05985
1.40319
2.01433
2.12956
1.50248
4.18712
6.1288
5.7606
1.05703
2.41864
2.92359
0.855627
0.490301
3.04365
2.58928
3.65522
1.42292
1.53922
0.463445
1.28953
1.24068
8.05653
1.35437
2.20709
2.19769
2.1086
5.15533
1.05182
1.10491
1.51264
1.16625
4.81361
0.533493
3.17652
1.48995
1.55968
0.436096