/*--------------------------------*- C++ -*----------------------------------*\
| =========                 |                                                 |
| \\      /  F ield         | OpenFOAM: The Open Source CFD Toolbox           |
|  \\    /   O peration     | Version:  2212                                  |
|   \\  /    A nd           | Website:  www.openfoam.com                      |
|    \\/     M anipulation  |                                                 |
\*---------------------------------------------------------------------------*/
FoamFile
{
    version     2.0;
    format      ascii;
    arch        "LSB;label=32;scalar=64";
    class       volScalarField;
    location    "10";
    object      nut;
}
// * * * * * * * * * * * * * * * * * * * * * * * * * * * * * * * * * * * * * //

dimensions      [0 2 -1 0 0 0 0];

internalField   nonuniform List<scalar> 
76020
(
0.000852504
0.000884572
0.000957642
0.000963055
0.000821461
0.000808521
0.000756392
0.00099972
0.00114549
0.00094547
0.000888251
0.000997342
0.000948895
0.00104539
0.000837792
0.000970003
0.00100422
0.000927169
0.000906435
0.000891372
0.000917939
0.000900139
0.00105168
0.000981462
0.000836262
0.000855155
0.000922772
0.00104992
0.000691244
0.000772778
0.00100764
0.00105973
0.000930149
0.000891833
0.00101163
0.000757168
0.000932532
0.00081315
0.00122041
0.00107153
0.000923871
0.000779299
0.00120282
0.0013134
0.0012346
0.00118161
0.000766052
0.000794942
0.000888852
0.00104216
0.000782834
0.000942281
0.0010082
0.00106013
0.000871146
0.000636923
0.0010551
0.00106196
0.0015046
0.000704401
0.000758533
0.000994964
0.000911916
0.000865034
0.00076768
0.0010647
0.000956891
0.00105812
0.000996336
0.00080576
0.000981165
0.00125263
0.000900016
0.000905557
0.000767636
0.000770898
0.000804203
0.000942057
0.000868911
0.000889927
0.000898679
0.000900405
0.00102575
0.000727109
0.00131773
0.00128233
0.000981089
0.00113528
0.00109658
0.000798342
0.000948725
0.00101314
0.000798206
0.000813292
0.000958589
0.00098364
0.000795227
0.000762736
0.000840284
0.000902958
0.000812969
0.000864956
0.000917602
0.000713796
0.00133061
0.0010298
0.000808367
0.000794072
0.00102459
0.000787893
0.000855959
0.000874193
0.000740941
0.00090482
0.000838293
0.000911933
0.000858133
0.000947162
0.000829377
0.000915828
0.000890152
0.000943159
0.000863163
0.000814318
0.00107263
0.000833978
0.000953103
0.000902769
0.000881741
0.000714619
0.00087302
0.00089001
0.000980995
0.00089352
0.000892772
0.000945127
0.000956812
0.000895719
0.000664135
0.000839077
0.000859387
0.000867756
0.000797531
0.000801338
0.000938065
0.000894686
0.000914531
0.000963839
0.000952054
0.00095986
0.000851859
0.000879013
0.000821325
0.00105549
0.00113466
0.00116738
0.00100235
0.000862484
0.000763599
0.0012691
0.00123691
0.000843762
0.000908495
0.000846971
0.000871745
0.000962863
0.00084057
0.000881824
0.000754141
0.000834094
0.000749251
0.00074565
0.000746815
0.000747081
0.00099794
0.000904856
0.000795789
0.000787238
0.00143705
0.00075697
0.000940154
0.000825992
0.000874817
0.000830109
0.000759023
0.000889978
0.000853094
0.000994655
0.000921427
0.00123026
0.00123717
0.000857022
0.000805466
0.000951265
0.00107668
0.00109503
0.00131909
0.000985626
0.000802557
0.000680827
0.000950524
0.000793468
0.000779386
0.000898925
0.000964348
0.000884391
0.00090576
0.000922672
0.000834382
0.000977376
0.000773234
0.000916904
0.00114602
0.000864714
0.000988345
0.00079559
0.000871617
0.000912276
0.00101889
0.000766084
0.00128333
0.00101242
0.000916435
0.000881562
0.000933466
0.00093443
0.000946024
0.000988477
0.000913678
0.00150425
0.00112009
0.000884518
0.00074364
0.000861289
0.000907682
0.00125422
0.000828858
0.000992428
0.000798175
0.000884525
0.000808881
0.000987949
0.000975389
0.00105741
0.000925577
0.000841671
0.000894098
0.00077206
0.00136995
0.000833103
0.000833794
0.00092197
0.000753685
0.00106473
0.00104415
0.000883803
0.000885233
0.000945531
0.000760202
0.000929004
0.000695764
0.00131355
0.000757703
0.0011709
0.000839413
0.00106763
0.00103282
0.00106976
0.00103086
0.000978876
0.00122322
0.000935704
0.000850117
0.000863736
0.00112792
0.000785394
0.0010041
0.00116509
0.00120014
0.000848286
0.000690677
0.000757398
0.00130164
0.000956769
0.00095742
0.000716801
0.000885821
0.00122339
0.000909484
0.00108545
0.000846627
0.0007988
0.000917619
0.000824563
0.000986868
0.000634866
0.000677477
0.000934516
0.000978887
0.000781948
0.000867153
0.000850274
0.00139739
0.00096594
0.000894876
0.000803517
0.000779837
0.000896848
0.000935845
0.00126983
0.000863826
0.000890915
0.0012415
0.000763816
0.000819412
0.00118698
0.000915749
0.000867477
0.000777896
0.000784977
0.000714165
0.000921329
0.000887104
0.000909242
0.000817397
0.0007676
0.000727871
0.000880374
0.00095219
0.00102136
0.000747391
0.0011148
0.00144951
0.000888446
0.00088927
0.000846951
0.000845771
0.000983147
0.00102721
0.000951207
0.00123094
0.000884206
0.00124154
0.000799199
0.000883472
0.00090004
0.000883584
0.00123962
0.000790785
0.000731507
0.000753083
0.00129148
0.000898579
0.00127052
0.00112602
0.000790669
0.000835393
0.00098781
0.00138513
0.000754196
0.000786209
0.000923689
0.000916918
0.000870115
0.00118062
0.00127015
0.000888228
0.000758723
0.000914099
0.00091299
0.000887692
0.000750329
0.000783364
0.000787942
0.000938295
0.000895159
0.00106479
0.00108613
0.000919661
0.000907461
0.000909573
0.000695304
0.000846005
0.000918431
0.000829395
0.00103923
0.00115682
0.000753893
0.000861791
0.00108866
0.000898381
0.000767692
0.00130348
0.00109597
0.000916961
0.000912514
0.00100373
0.00087021
0.000822631
0.000984851
0.000928408
0.00109499
0.00112689
0.00108374
0.000875254
0.000819704
0.00113177
0.000992994
0.00101472
0.000864041
0.000901972
0.000848669
0.0011088
0.000840658
0.000815144
0.00144098
0.00139327
0.000894718
0.000798075
0.00107412
0.000840986
0.00069365
0.000947577
0.000924173
0.00125635
0.00102669
0.00100718
0.001101
0.00097632
0.000884856
0.000816384
0.00084521
0.000911657
0.000744282
0.000882693
0.000902171
0.00099666
0.00103006
0.00106207
0.00115046
0.00082109
0.000914988
0.00073235
0.00120428
0.000820144
0.000888813
0.000716063
0.000736601
0.00104977
0.000966095
0.000933886
0.000978814
0.000930508
0.00103074
0.00103459
0.000839763
0.00125086
0.00114684
0.000932945
0.00106966
0.000869171
0.00104158
0.000843708
0.00101034
0.000994749
0.00132375
0.000923486
0.000838681
0.000823243
0.00090096
0.000984713
0.00098553
0.000739458
0.00104248
0.000797376
0.000831478
0.00081483
0.00100687
0.000872041
0.000902629
0.000945458
0.000777422
0.000889822
0.000966588
0.000792434
0.00089783
0.000878871
0.000933586
0.000783336
0.000836372
0.000854175
0.000890544
0.0010012
0.000813681
0.000857451
0.000877885
0.00078606
0.000867427
0.000934162
0.000898046
0.000890818
0.000806876
0.000822485
0.000979581
0.000793002
0.000790123
0.000694158
0.000641854
0.000855713
0.000817928
0.000619882
0.000867445
0.000810323
0.000977526
0.00101793
0.00135852
0.000970071
0.000824036
0.000854687
0.00101263
0.00115376
0.00114616
0.00127196
0.00130488
0.000687367
0.000948925
0.0011076
0.00106633
0.00113431
0.000896918
0.000908322
0.000938842
0.00121676
0.00104665
0.000994863
0.00112952
0.000900604
0.000785855
0.00123597
0.000904637
0.0012277
0.0010501
0.00113123
0.00104283
0.000962364
0.00122204
0.000860826
0.000987032
0.00102151
0.00097287
0.00101548
0.000889611
0.00108685
0.000970041
0.000935685
0.00139391
0.000781471
0.00084624
0.00122119
0.000908194
0.000949822
0.000872534
0.000985288
0.000957395
0.00084694
0.000995364
0.00138203
0.000787262
0.000922895
0.000932946
0.000931012
0.000708044
0.00105248
0.00119403
0.00117129
0.000919315
0.00103474
0.00105807
0.000884909
0.000811218
0.00065437
0.000980746
0.001022
0.000874535
0.00103329
0.00122628
0.000776247
0.000970316
0.000969237
0.00104274
0.000773042
0.0010239
0.00064987
0.00109576
0.00088207
0.000884788
0.00131254
0.00124545
0.00110957
0.00120911
0.000914005
0.000894095
0.00110616
0.000895044
0.000763035
0.000873479
0.0008717
0.00105302
0.000643365
0.000780348
0.000816708
0.000728661
0.00111604
0.000889303
0.000921777
0.00094871
0.00091588
0.00086699
0.000989853
0.00122608
0.00114448
0.00109435
0.000854836
0.00108116
0.000739976
0.000872081
0.000932353
0.0008612
0.000850875
0.000835161
0.00166192
0.000853357
0.000870574
0.000858302
0.000927963
0.00122909
0.00109971
0.000888219
0.00110006
0.00104794
0.00124054
0.00083131
0.000781599
0.00100928
0.000782827
0.000764781
0.000718683
0.00101775
0.0009635
0.000852233
0.00081496
0.000928322
0.00100333
0.000867983
0.0010499
0.000788257
0.00123103
0.00112507
0.000908973
0.000829379
0.000987759
0.000952631
0.000805198
0.00122399
0.00111422
0.00121159
0.00100392
0.000951576
0.00109625
0.000907979
0.000837793
0.000832199
0.00100629
0.000802686
0.000861975
0.000856087
0.000783394
0.000823371
0.00103259
0.0007452
0.000804442
0.000911735
0.00101959
0.000793177
0.000924203
0.000809108
0.000970497
0.000964299
0.00100387
0.00117335
0.00111017
0.00101137
0.000857287
0.000797789
0.000796419
0.00131714
0.000935162
0.000933751
0.001015
0.000835212
0.000914059
0.000854835
0.00090035
0.00116172
0.000962078
0.00105594
0.000820867
0.000990309
0.00083512
0.00145662
0.00086997
0.00102277
0.00117271
0.00102273
0.000884952
0.000917852
0.000861007
0.000873928
0.000733673
0.00113507
0.000848736
0.001151
0.00150771
0.00102497
0.000764017
0.000742395
0.0014167
0.00129946
0.000874337
0.000860817
0.000937743
0.000889331
0.000991176
0.000911959
0.0009355
0.00090509
0.00113704
0.000909231
0.00094563
0.000930419
0.000838088
0.00158216
0.000739509
0.00105756
0.00103541
0.00109695
0.00108103
0.000833801
0.000858331
0.000805845
0.000640441
0.00104808
0.0014235
0.000828789
0.00112666
0.000761973
0.00104231
0.00132993
0.00121489
0.000811483
0.00143826
0.000847019
0.00113742
0.00104748
0.00105432
0.00116863
0.000809161
0.0008463
0.001375
0.00139247
0.000901782
0.00120631
0.000823622
0.0009759
0.00091201
0.000800099
0.000798028
0.000906448
0.00114639
0.000684387
0.000798948
0.0007963
0.000787429
0.000882154
0.000863978
0.000863246
0.000934984
0.000901065
0.00117445
0.000773403
0.000710144
0.000979019
0.00089557
0.00092153
0.000912498
0.000920626
0.00133547
0.000841478
0.000869057
0.000871716
0.000898574
0.00123963
0.00102839
0.000904647
0.000963194
0.0010502
0.0009446
0.001167
0.000850099
0.000912989
0.000983286
0.00094051
0.000924718
0.00106222
0.00127089
0.00127618
0.000934326
0.00107088
0.000854296
0.000933913
0.00113324
0.000828304
0.00114318
0.000833262
0.00119867
0.00115048
0.000956827
0.00096375
0.000877061
0.000946446
0.000794749
0.000694559
0.000844818
0.00100947
0.000854137
0.000859338
0.000757692
0.0010614
0.000786299
0.000856765
0.000893312
0.00105826
0.00102268
0.00080419
0.000787494
0.000928156
0.00136542
0.00122717
0.00105781
0.000918759
0.000851983
0.000855349
0.00097445
0.000802449
0.00112335
0.00102019
0.00085295
0.000876722
0.000856142
0.00117934
0.000895724
0.000894136
0.000999194
0.00105381
0.000941366
0.000846338
0.000862079
0.000927728
0.000857844
0.000960662
0.000839575
0.000907251
0.0008033
0.000874663
0.000767509
0.000876309
0.000780945
0.000895746
0.00112044
0.00137741
0.000836982
0.000927039
0.000878554
0.000880973
0.00090768
0.000976654
0.000996905
0.000931675
0.000813295
0.000725019
0.00132917
0.00080206
0.00105498
0.00110629
0.000887207
0.000968492
0.000840838
0.00107011
0.000874507
0.0009832
0.000783857
0.000876722
0.00100036
0.000901774
0.000870265
0.000838246
0.000646512
0.000747558
0.000753506
0.00102985
0.000766899
0.000940106
0.0011327
0.00114799
0.0009651
0.000892219
0.000836863
0.000915246
0.000972049
0.000774051
0.00133779
0.00141339
0.0007894
0.00138744
0.000965937
0.000768477
0.000976638
0.00102254
0.00104711
0.00103508
0.000950434
0.000810231
0.000939043
0.000816449
0.00108271
0.0009625
0.000905363
0.000894444
0.000977294
0.000975889
0.00127741
0.00108543
0.00137515
0.00143839
0.000961178
0.00111363
0.00106855
0.00159967
0.000812083
0.00102746
0.000991937
0.00094406
0.000982156
0.000962017
0.00126407
0.00112803
0.00104185
0.000924658
0.000928816
0.000916076
0.0010623
0.000979062
0.00108801
0.000958874
0.000888805
0.000873302
0.000989076
0.000992715
0.000901868
0.000805883
0.000741668
0.000915621
0.000958647
0.00105956
0.000907184
0.000882749
0.00098702
0.000995945
0.000903129
0.00129524
0.000757027
0.000907867
0.000876476
0.000870831
0.00101122
0.000749059
0.00121653
0.000841161
0.000946747
0.00077781
0.000919145
0.000879229
0.00111378
0.000751727
0.000866106
0.000827774
0.00101914
0.000985313
0.000957267
0.000845793
0.000943553
0.00109658
0.00118772
0.00094027
0.000942234
0.0012971
0.000851794
0.00103825
0.00107402
0.000834347
0.00132439
0.000860724
0.00135896
0.00130245
0.000894085
0.000788387
0.000845381
0.00121541
0.00104497
0.000865424
0.000819718
0.000840087
0.00133546
0.000739115
0.000878841
0.000943562
0.0010514
0.000945841
0.000935242
0.000725576
0.000827367
0.00135732
0.000920317
0.00103409
0.000913708
0.00130457
0.000997159
0.00127803
0.0009231
0.000798903
0.000937846
0.0010392
0.000942249
0.00075181
0.000908881
0.000998719
0.000894605
0.00104881
0.000905298
0.00118147
0.000771788
0.00110353
0.000906534
0.00155051
0.000912862
0.00096694
0.000963951
0.00110173
0.000853496
0.000836387
0.000919345
0.00106814
0.001199
0.000864932
0.00101403
0.00138192
0.00141438
0.00147987
0.00114815
0.00127099
0.00082654
0.00114603
0.000844483
0.000850184
0.000961174
0.000958852
0.00112989
0.00104186
0.000987535
0.00113527
0.00115281
0.000755478
0.00105214
0.00125355
0.00138038
0.00129238
0.00111335
0.000955079
0.00100617
0.000829814
0.00075385
0.00123688
0.000817658
0.00114299
0.000880596
0.000850075
0.00152681
0.000883395
0.000924858
0.00097798
0.00097444
0.000874647
0.000906068
0.000933222
0.00104572
0.000920372
0.000889155
0.000989571
0.000885507
0.000999276
0.000907519
0.000856036
0.000999836
0.000981674
0.00116419
0.00106066
0.00102166
0.00112258
0.00107551
0.0012626
0.00124227
0.00114559
0.000710465
0.00084802
0.00109063
0.00129285
0.000861783
0.000861841
0.000921772
0.000933422
0.000925798
0.000927704
0.000967367
0.000854774
0.000963697
0.000781738
0.00101688
0.000798336
0.00102451
0.000911609
0.000957219
0.00100662
0.0011163
0.000882249
0.00084788
0.000987288
0.000784417
0.00105185
0.000948073
0.000761905
0.000831267
0.000863234
0.000973195
0.00119299
0.000865181
0.000834528
0.000793583
0.0006464
0.000869162
0.000954913
0.000868787
0.000860606
0.000777463
0.00111496
0.00104136
0.000799317
0.000713
0.00103352
0.000805999
0.000905903
0.0010641
0.00091436
0.000800705
0.000877337
0.000938965
0.000886057
0.00131198
0.000954956
0.000907793
0.000840333
0.0007744
0.000766596
0.00105684
0.00102041
0.000907753
0.000943678
0.000903543
0.000961035
0.000788144
0.000881602
0.000904351
0.00098999
0.00100205
0.00126984
0.00086947
0.000931678
0.000920613
0.000825883
0.000962198
0.0012424
0.000856379
0.000945349
0.000851645
0.000982828
0.00179937
0.00111167
0.000973202
0.000811446
0.00120014
0.00100034
0.000710029
0.00107683
0.000948151
0.000752817
0.000953472
0.000849639
0.00112361
0.000865938
0.00102155
0.000887308
0.000569158
0.000895398
0.000812943
0.00121515
0.00077093
0.000749832
0.000953443
0.00164839
0.00094286
0.000810135
0.000880985
0.000849421
0.000831712
0.00124645
0.00070719
0.000806046
0.0007718
0.00089697
0.000911349
0.000912234
0.0011839
0.000999403
0.000940822
0.000786131
0.00105155
0.00125129
0.00084043
0.000977518
0.00111622
0.000703129
0.0011637
0.00113363
0.000907756
0.00109502
0.000832101
0.000752536
0.000901259
0.000846256
0.00114365
0.000981476
0.000854329
0.00139679
0.000870483
0.000874403
0.000665554
0.00107928
0.000959751
0.000747997
0.000956495
0.0009936
0.000931158
0.000899813
0.000866103
0.000801193
0.000899057
0.000933544
0.000986245
0.00105334
0.00132852
0.00093708
0.00112434
0.000998801
0.00113845
0.000790921
0.00108201
0.000787335
0.000946154
0.000965262
0.0013193
0.00101696
0.00145698
0.00134162
0.00110951
0.000863811
0.00109919
0.00090939
0.000908938
0.000962988
0.00131628
0.00140921
0.000627402
0.000862798
0.00089147
0.00107479
0.000964067
0.0012656
0.000892205
0.00101827
0.000644895
0.000898292
0.00112272
0.000979662
0.000986413
0.00109835
0.000941155
0.00095337
0.00106559
0.00075118
0.000916239
0.00091765
0.000992115
0.00126243
0.00120867
0.000756271
0.000859975
0.00085064
0.000800464
0.000863932
0.000926373
0.00094273
0.000989693
0.000933567
0.000890756
0.000995726
0.000881951
0.00118344
0.000853495
0.00142884
0.00138716
0.000941759
0.00103059
0.000913941
0.00110007
0.00109958
0.000982498
0.000960451
0.00136288
0.00118682
0.000811645
0.000571399
0.00138178
0.000709044
0.000878367
0.00129605
0.00114228
0.00132225
0.000911038
0.000855997
0.000959196
0.000902864
0.000826524
0.00176916
0.000847431
0.000990507
0.000978513
0.00078789
0.00151404
0.000808143
0.000806016
0.000982301
0.000892292
0.00105097
0.00092422
0.00112669
0.000958186
0.000895007
0.000975263
0.00141227
0.000859555
0.000866251
0.000860782
0.00087291
0.000792324
0.000817069
0.000813575
0.00100256
0.000765298
0.000978815
0.00101236
0.00102775
0.00082196
0.00121398
0.000851964
0.00108687
0.000749183
0.000812907
0.000976299
0.000936026
0.000850033
0.000973361
0.000893347
0.000875298
0.00109808
0.000818116
0.000953076
0.000949317
0.000854438
0.00104018
0.00109105
0.00105923
0.000892957
0.00105939
0.00113793
0.000834535
0.000920227
0.00108533
0.000995447
0.000830261
0.000902567
0.00115096
0.00112332
0.00114258
0.000850404
0.00097388
0.00111934
0.000947556
0.000886016
0.000933221
0.00147447
0.00133248
0.000843535
0.00125001
0.00128122
0.000670247
0.000876352
0.000933924
0.00110411
0.00106383
0.00094241
0.000775786
0.00142194
0.00140762
0.00110508
0.00122941
0.00094577
0.00104179
0.00112897
0.000853329
0.000778942
0.00101041
0.00101726
0.000813165
0.000768984
0.000854621
0.000906733
0.000925233
0.00116701
0.00096258
0.00123222
0.000975056
0.000893006
0.000848628
0.000789797
0.000906375
0.000824093
0.00127249
0.00119761
0.000898902
0.0011125
0.000914035
0.00109104
0.000909298
0.00131362
0.000915343
0.000806819
0.00107501
0.00106587
0.0008833
0.0012535
0.000814636
0.000735229
0.000731437
0.000999217
0.000891693
0.000812565
0.000796113
0.000825169
0.000800924
0.00104352
0.00104268
0.00128004
0.00119827
0.00121914
0.000903173
0.000792149
0.000925033
0.00145237
0.000977923
0.00100776
0.0010306
0.000731353
0.00085449
0.0012118
0.000916485
0.000968511
0.000849357
0.000916221
0.00124874
0.00112137
0.00133188
0.0013468
0.00134526
0.000864638
0.00116606
0.00105337
0.0010388
0.00134792
0.00132048
0.000785772
0.000808255
0.000837671
0.00115519
0.00106463
0.00134312
0.000887362
0.000878869
0.000766262
0.000964307
0.000986804
0.000921697
0.000884654
0.00084527
0.000872518
0.000869467
0.000945596
0.000817222
0.00123765
0.000862669
0.000619421
0.00091578
0.000834212
0.000861526
0.000910391
0.0008711
0.000879044
0.00104613
0.000830378
0.000963962
0.000857689
0.00117005
0.000925537
0.000932207
0.00142017
0.000912376
0.000911976
0.000792248
0.00118927
0.00106712
0.00104728
0.000900444
0.00108423
0.00126231
0.000782582
0.00074721
0.000886532
0.00106977
0.00107848
0.000930995
0.00146551
0.00109544
0.00104303
0.000716797
0.000859531
0.00100951
0.0010292
0.000973207
0.00093491
0.000779219
0.00104923
0.000685135
0.0010796
0.000971563
0.0010365
0.00108998
0.00114374
0.000831326
0.000745163
0.00106428
0.00112693
0.00127959
0.00131469
0.001036
0.000756922
0.000806094
0.000798733
0.000779774
0.00106474
0.000967611
0.000863799
0.00110254
0.00105577
0.000849789
0.000916635
0.00096525
0.001288
0.000885133
0.000919526
0.00101258
0.000856834
0.000977796
0.00112757
0.000934264
0.00101013
0.00111925
0.000906162
0.000859054
0.000873628
0.000840132
0.00133923
0.000801544
0.000880043
0.00116542
0.000971165
0.000941513
0.0013033
0.0010741
0.000836807
0.0015076
0.00131405
0.00098398
0.000943633
0.000971382
0.00080913
0.00072476
0.000920468
0.000785405
0.000791782
0.00143247
0.00100246
0.000981139
0.000929264
0.00121941
0.000854899
0.00150992
0.00103438
0.00103198
0.000933256
0.000929127
0.00107898
0.00110675
0.00124956
0.000949522
0.00128009
0.000903179
0.00127314
0.000969926
0.000983991
0.000752397
0.00095137
0.000973317
0.0014722
0.000928131
0.000972829
0.000928117
0.000970576
0.000954016
0.000913762
0.000952999
0.00137536
0.00143255
0.00108653
0.00087259
0.00103731
0.00119086
0.000818507
0.00143241
0.000810333
0.00116808
0.00125063
0.000828519
0.000772641
0.000773642
0.00099734
0.000952929
0.000905353
0.000907899
0.00145551
0.00145094
0.00112097
0.000940645
0.000862198
0.0013389
0.000962564
0.000998772
0.00104958
0.000789774
0.000804767
0.00115359
0.00102289
0.000911312
0.00138567
0.00126979
0.000905621
0.000845648
0.000925998
0.00110406
0.000868112
0.000768041
0.00100223
0.000772657
0.00108176
0.00111628
0.000808066
0.00111166
0.000727607
0.000849108
0.000958449
0.000739008
0.000874976
0.0010071
0.00102148
0.0010092
0.000948617
0.000758547
0.000859167
0.000841684
0.000799804
0.000814824
0.00106791
0.000837499
0.000936166
0.00150267
0.00170772
0.00155367
0.000849776
0.000784405
0.000892037
0.00129556
0.000774329
0.000944698
0.000843131
0.000878727
0.00100058
0.000882947
0.00109254
0.000918771
0.000757268
0.00082324
0.000718056
0.000995362
0.00109883
0.000799238
0.000844787
0.000694114
0.00129672
0.00105298
0.000995149
0.000823603
0.000908787
0.000782525
0.00108115
0.000818075
0.000717486
0.000843798
0.00136366
0.00112953
0.000798489
0.000885612
0.000890732
0.000737887
0.000914398
0.00132992
0.00113581
0.000888178
0.00101261
0.000981271
0.000861006
0.00170947
0.00090668
0.00087604
0.000917451
0.000885338
0.000888915
0.0009621
0.00104611
0.000852788
0.000863709
0.00142393
0.000897305
0.000888311
0.00111569
0.0014331
0.000850924
0.00136068
0.00133718
0.000732606
0.00109833
0.00134864
0.00145904
0.00111973
0.000695575
0.00116456
0.00155417
0.00147706
0.0012631
0.00126354
0.000841042
0.000958042
0.000887497
0.000916488
0.00082584
0.000996948
0.00102624
0.000967563
0.000846758
0.00119507
0.000893365
0.00093592
0.000940792
0.00103778
0.000892234
0.00132706
0.000946471
0.00086077
0.00094996
0.00108115
0.000960014
0.000847049
0.000817866
0.000816823
0.000986996
0.00113625
0.000886546
0.00102022
0.000911894
0.0010344
0.000854131
0.000783866
0.000794529
0.000724715
0.000958566
0.00101604
0.000759551
0.000895972
0.00129431
0.000722881
0.000871467
0.000957872
0.000960431
0.000978557
0.00082757
0.00118223
0.00104092
0.000917483
0.00103812
0.000919957
0.000850355
0.0011955
0.000737854
0.000837504
0.000938017
0.00105904
0.00139701
0.000974673
0.00101081
0.000974441
0.00130638
0.00100591
0.000939524
0.00110263
0.00129731
0.000863394
0.00101846
0.000797935
0.000820911
0.000811526
0.000838377
0.000785419
0.000885054
0.00085136
0.00111519
0.00074088
0.000678689
0.000859435
0.000931901
0.000848927
0.000754884
0.000812
0.00142248
0.00102989
0.000795389
0.000942719
0.000894086
0.000893129
0.000966495
0.00116217
0.00123882
0.000987492
0.0014407
0.00108575
0.000857877
0.000822803
0.000978339
0.000992769
0.000624054
0.00139713
0.0011544
0.00080566
0.000878238
0.000912204
0.000889055
0.00102162
0.000832505
0.00120871
0.00129381
0.00131061
0.000993435
0.000788417
0.000911788
0.000838054
0.000841581
0.000858543
0.000956705
0.000970756
0.000986644
0.00123485
0.00119166
0.00121927
0.0010269
0.000807664
0.000699347
0.000980377
0.0011043
0.000783483
0.000885349
0.00127031
0.0012702
0.00106721
0.000974876
0.00121994
0.00110235
0.00137352
0.00148362
0.00154903
0.000719001
0.00103563
0.0011005
0.000824746
0.00101746
0.00116733
0.000894814
0.000863005
0.00081782
0.000981847
0.00136451
0.00109148
0.00120509
0.0013162
0.00111589
0.000948608
0.000908834
0.00107154
0.00071894
0.00088408
0.000922681
0.00125475
0.00135493
0.000863881
0.00123164
0.00107956
0.000817874
0.000801935
0.000780858
0.000769056
0.000938536
0.00103758
0.000875962
0.00187571
0.000798511
0.000925945
0.000948538
0.00112706
0.00116771
0.0013179
0.00123616
0.000848849
0.00115905
0.00087679
0.00142712
0.00141172
0.000922422
0.00139662
0.00094756
0.000935269
0.000916182
0.000901143
0.00102578
0.00144261
0.000843605
0.000832266
0.000812419
0.000806869
0.000827313
0.000823165
0.000829561
0.000855038
0.000934872
0.000739396
0.000971403
0.00098589
0.000869365
0.000793473
0.000796219
0.000966659
0.00085951
0.000976892
0.00104536
0.00101611
0.000910868
0.000923684
0.000762304
0.0011963
0.00129418
0.000874759
0.00118279
0.000901244
0.00086276
0.000864054
0.00132511
0.000719596
0.000751488
0.0017128
0.000809424
0.000914704
0.000831391
0.00111643
0.00074806
0.00104157
0.000985192
0.000692354
0.000887339
0.000774544
0.00120415
0.000925103
0.000918161
0.000891714
0.000722585
0.00136279
0.00103158
0.000959742
0.000818915
0.000803305
0.000898213
0.000875904
0.000931535
0.000953476
0.000881969
0.000680994
0.00104981
0.000995018
0.00114013
0.000889896
0.0011032
0.000897764
0.000768531
0.000992999
0.000820616
0.000816345
0.000676621
0.0012854
0.000823393
0.00106698
0.000988791
0.00097364
0.000795342
0.000867694
0.000913155
0.00112611
0.0011516
0.000768911
0.00106014
0.000950163
0.00110493
0.000814439
0.00118571
0.000989514
0.000973058
0.000915648
0.00113826
0.000838401
0.00106123
0.00150072
0.00108172
0.00101805
0.00107506
0.000766081
0.000848381
0.000971445
0.00143977
0.000843294
0.000791133
0.00109169
0.000756139
0.000795315
0.000859235
0.00100069
0.000924614
0.00118971
0.000779507
0.00087814
0.000930448
0.00134833
0.000999152
0.00100322
0.000803688
0.000927534
0.000807449
0.000878201
0.000973962
0.000964214
0.00121642
0.000967866
0.00101718
0.000917574
0.00107214
0.00113385
0.00159452
0.00113434
0.00092586
0.00103307
0.000792083
0.000929502
0.0010069
0.000758597
0.00106815
0.00102207
0.000914969
0.00150445
0.00134415
0.00135589
0.000991279
0.00105345
0.000813079
0.000778927
0.00102622
0.000972014
0.000867886
0.000937215
0.000781229
0.000915423
0.000841807
0.00102207
0.000779244
0.00120408
0.00108819
0.000815485
0.000913739
0.000738055
0.00090291
0.000963459
0.000972529
0.00108458
0.000851717
0.000855298
0.00121626
0.000902208
0.00114294
0.00117668
0.000706857
0.000684302
0.00098344
0.000891671
0.00360075
0.00231664
0.00120895
0.00351566
0.00199531
0.00345564
0.00453179
0.00332472
0.00528835
0.00504805
0.00147412
0.00401829
0.00176811
0.00475849
0.00285918
0.00256762
0.00428574
0.00536298
0.00258805
0.00323855
0.00335211
0.00372665
0.00333351
0.00216337
0.00424904
0.00172391
0.00129084
0.00162636
0.00459589
0.00231793
0.00416981
0.00451263
0.00353394
0.00147507
0.00363536
0.00410574
0.00186222
0.00171381
0.00435309
0.00461817
0.00576667
0.00357143
0.00747498
0.0081212
0.0100459
0.00801023
0.00213158
0.00207921
0.00248574
0.00455388
0.00363228
0.00327634
0.00398134
0.0038052
0.00264504
0.00388155
0.00615967
0.00361635
0.0116685
0.00289686
0.00229301
0.00321368
0.00221584
0.00288337
0.00195303
0.00271186
0.00370503
0.00256266
0.00255176
0.00211505
0.00429697
0.00602294
0.00142668
0.00222798
0.00147191
0.00214782
0.00312832
0.0031115
0.00220909
0.00246035
0.00500501
0.00408433
0.00376226
0.00259928
0.00605693
0.0076513
0.00369769
0.00931724
0.00439409
0.00291323
0.00269849
0.00676256
0.00215234
0.0025882
0.0021451
0.00362153
0.00261336
0.00310568
0.00270961
0.00386964
0.00209912
0.0018006
0.00306588
0.0032152
0.00726002
0.00137231
0.00235943
0.00267402
0.00144182
0.00233872
0.00275906
0.00400589
0.0015692
0.00550039
0.00248715
0.00211763
0.00243634
0.00141693
0.00274502
0.00260627
0.00431308
0.00454103
0.00150661
0.00588004
0.00760301
0.0044498
0.00767128
0.00179311
0.00205671
0.00236242
0.00385075
0.00609309
0.00437369
0.00461666
0.0055827
0.00356449
0.00228718
0.0037952
0.00335255
0.0042234
0.0037494
0.00299799
0.002278
0.00465069
0.00484613
0.00380732
0.00386796
0.00241587
0.00125917
0.0015726
0.00338704
0.00457747
0.00428559
0.0061902
0.00514589
0.00273685
0.00275464
0.00330246
0.00257746
0.0055411
0.00745656
0.00328411
0.00289105
0.002433
0.00238135
0.00452194
0.00228492
0.00143449
0.00220582
0.00426353
0.00286368
0.00291802
0.0019009
0.00253128
0.00211756
0.00208409
0.00263509
0.00239151
0.00825027
0.00235768
0.00405478
0.0028635
0.00307445
0.00274901
0.00211157
0.00250366
0.00159626
0.00558575
0.00447012
0.00678232
0.00919265
0.00277058
0.0030906
0.00436591
0.00477901
0.00415806
0.00597867
0.00145957
0.00403385
0.00266093
0.00173048
0.00275433
0.00226247
0.00136485
0.00202193
0.00248674
0.00299169
0.00312009
0.00342323
0.00136517
0.00233534
0.003194
0.00772924
0.00187098
0.0043245
0.00289545
0.00199803
0.00274431
0.00434097
0.00272434
0.00243865
0.00180602
0.00332685
0.00222491
0.00130182
0.00386663
0.00463963
0.00326861
0.00333947
0.0115841
0.00398571
0.00536743
0.00387583
0.00449976
0.003224
0.00404408
0.00323209
0.00292173
0.00186281
0.00548359
0.00233489
0.00310555
0.00246277
0.00367785
0.00250373
0.00264423
0.00363942
0.00316962
0.00402772
0.00371993
0.00369223
0.00472518
0.00282519
0.00533344
0.00306665
0.0034233
0.0013275
0.00133373
0.00320384
0.00276467
0.00492605
0.00419085
0.0018205
0.00471526
0.00418369
0.00456881
0.00383635
0.00359587
0.0032556
0.00203952
0.00567139
0.00503165
0.00234935
0.00183264
0.00427836
0.0016631
0.00345756
0.00705286
0.00666721
0.00327241
0.00254032
0.0033685
0.00803498
0.00426366
0.00408318
0.00240045
0.00405427
0.00285176
0.00291718
0.00305385
0.00204032
0.00307973
0.00419181
0.00390282
0.00177935
0.00398378
0.00159249
0.00296331
0.0037574
0.00340078
0.00408297
0.0039114
0.00501633
0.00207204
0.00135806
0.00279588
0.00274255
0.00138923
0.00269486
0.00805855
0.00150449
0.00316284
0.00862624
0.0033046
0.00385823
0.00653076
0.00403925
0.0028808
0.00321717
0.00338153
0.00180095
0.00616159
0.00138628
0.0052208
0.00216963
0.00291344
0.00257227
0.00503627
0.00417523
0.00462138
0.00165007
0.00519793
0.00631016
0.003494
0.00470632
0.00233223
0.00241348
0.005135
0.00343306
0.00478285
0.00862072
0.00400969
0.00916184
0.00242611
0.00150173
0.00304634
0.00367479
0.00383944
0.00254145
0.00129285
0.00292302
0.0075428
0.00141775
0.00626237
0.00411649
0.0024166
0.00633564
0.00253033
0.00731695
0.00258596
0.00160038
0.00181196
0.00216688
0.00206623
0.00502692
0.00779558
0.00488825
0.0024614
0.00142771
0.0013674
0.00133312