/*--------------------------------*- C++ -*----------------------------------*\
| =========                 |                                                 |
| \\      /  F ield         | OpenFOAM: The Open Source CFD Toolbox           |
|  \\    /   O peration     | Version:  2212                                  |
|   \\  /    A nd           | Website:  www.openfoam.com                      |
|    \\/     M anipulation  |                                                 |
\*---------------------------------------------------------------------------*/
FoamFile
{
    version     2.0;
    format      ascii;
    arch        "LSB;label=32;scalar=64";
    class       volScalarField;
    location    "10";
    object      p;
}
// * * * * * * * * * * * * * * * * * * * * * * * * * * * * * * * * * * * * * //

dimensions      [0 2 -2 0 0 0 0];

internalField   nonuniform List<scalar> 
76020
(
-112.339
-136.001
-14.9693
-148.742
-109.886
-159.611
-154.212
-58.6617
-44.3564
-42.9866
-34.9811
-25.2821
-7.34372
-54.894
-116.492
-112.32
-56.8672
-139.374
-17.8876
-16.2515
-36.7544
-65.4996
-85.3777
-13.895
-31.3227
-32.1425
-45.7314
-21.5619
-152.16
-137.497
-79.0312
-69.8988
-70.9348
-33.3299
-46.846
-157.815
-0.0810093
-145.088
-64.9418
-51.9689
-22.9499
-109.597
-67.1833
-64.6374
-37.5372
-67.0953
-97.2728
-104.093
-17.7111
-58.9011
-63.7929
-92.4971
-63.2615
-61.7563
-135.761
-127.656
-141.369
-158.262
-15.6307
-27.7871
-41.1365
-152.115
-130.208
-120.684
-132.178
-117.226
-48.9304
-121.535
-113.716
-94.1947
-24.0937
-94.9185
-31.4261
-58.1271
-117.47
-152.005
-115.461
-22.5084
-93.3981
-126.697
-98.9221
-66.9689
-42.4133
-106.652
-72.9733
-90.2421
-54.1605
-22.6366
-75.5883
-126.804
-110.434
-33.1058
-105.632
-111.436
-7.118
-185.353
-152.726
-148.538
-91.1326
-39.9243
-106.527
-32.1212
-97.4735
-60.0713
-74.5752
-11.6669
-149.543
-154.09
-11.0971
-67.6055
-150.897
-137.196
-73.3344
-71.4102
-148.181
-117.131
-102.604
-6.76077
-103.624
-41.1724
-98.6997
-98.665
-43.9501
-109.506
-26.5488
-87.1552
-84.7105
-57.6969
-140.552
-28.6734
-77.0371
-68.2075
-67.6818
-74.4403
-126.995
-175.025
-55.8176
-99.8836
-155.04
-104.019
-121.197
-40.8877
-146.047
-94.3589
-107.163
-113.32
-81.6395
-9.98733
-25.7564
-19.1309
-95.7836
-107.654
-66.2778
-28.3965
-44.1768
-85.8468
-57.3036
-142.482
-131.59
-81.1943
-28.3733
-94.9355
-105.161
-3.90353
-14.8665
-149.332
-131.314
-30.3993
-131.833
-144.24
-124.845
-106.422
-134.723
-132.346
-97.2938
-9.26893
-117.349
-120.237
-58.0275
-106.856
-119.595
-123.935
-123.963
-92.5902
-107.742
-98.3562
-127.752
-3.70985
-30.8966
-31.8113
-24.6537
-103.548
-106.082
-52.892
-50.2161
-138.704
-62.641
-13.7382
-132.579
-125.942
-5.83063
-65.8138
-95.1228
-27.1863
-12.7633
-15.4574
-168.965
-157.881
-84.2504
-13.5061
-98.244
-10.9041
-28.1126
-91.5113
-133.989
-127.363
-67.535
-117.048
-51.4888
-115.369
-140.469
-99.1946
-131.571
-110.186
-12.719
-31.781
-70.9819
-94.0385
-18.1333
-17.8243
-44.0987
-129.256
-143.042
-87.2587
-13.3371
-119.771
-69.827
-93.9842
-102.658
-124.315
-48.7029
-150.235
-10.1586
-84.9803
-82.6128
-72.0279
-68.0871
-152.602
-109.998
-110.122
-108.272
-133.715
-52.2495
-83.5665
-64.472
-49.0682
-31.4857
-12.2385
-172.048
-89.4212
-59.4671
-122.833
-106.824
-53.6685
-144.897
-84.271
-85.1659
-102.417
-102.115
-7.6724
-27.6688
-149.766
-118.754
-115.208
-135.819
-110.733
-44.4598
-41.597
-40.6861
-89.4477
-125.412
-182.578
-39.4848
-191.889
-5.27933
-19.3099
2.66415
-126.979
-143.882
-119.878
-31.3929
-153.435
-4.40548
-97.2786
-9.97312
-113.261
-118.757
-63.095
-74.7482
-101.545
-109.707
-107.753
-67.4708
-7.44906
-16.7781
-107.308
-109.457
-18.5315
-105.35
-32.5261
-203.049
-162.005
-47.8198
-53.6937
-41.3946
-55.7051
-214.994
-69.3582
-86.0004
-112.8
-108.196
-84.5832
-21.5724
-135.473
-111.426
-135.168
-143.915
-39.4861
-147.987
-32.5948
-95.0428
-74.8562
-39.1176
-81.3894
-121.706
-112.397
-48.2854
-131.888
-13.6987
-107.148
-18.5791
-21.9213
-7.42726
-104.496
-29.9503
-149.057
-135.532
-114.967
-107.973
-156.935
-125.737
-56.956
-32.7024
-33.0076
-113.727
-113.031
-98.7979
-97.0013
-40.578
-99.9094
-134.344
-13.2381
-10.5189
-81.8226
-96.3608
-16.7594
6.78497
-97.5297
-15.9013
-20.2084
-16.5091
-19.3828
-18.1687
-131.334
-15.9851
-128.154
-64.6847
-13.1098
17.443
-82.0513
-77.6468
-117.707
-114.829
-15.3151
-95.8508
-76.9595
-45.3023
-154.296
-72.1319
-27.0539
-30.1188
-80.9387
-74.0345
-74.1946
-4.88855
-85.6334
-8.80989
-84.843
-91.0742
-87.5513
-32.6382
-39.4533
-31.358
-14.7306
-56.1024
-37.6936
-71.6101
0.852245
-13.7391
-48.3382
-116.242
-122.23
-5.81415
-44.856
-160.809
-95.7736
-74.4804
-110.324
-160.15
-156.565
-83.2273
-138.987
-90.9307
-58.9714
-67.5908
-10.52
-14.4533
-19.9265
-104.525
-159.399
-142.51
-109.245
-156.75
-132.93
-23.778
-70.8929
-50.0263
-87.38
-77.7895
-88.3717
-39.6668
-47.9113
-153.118
-84.5222
-109.55
-156.523
-153.611
-149.498
-136.682
-6.43546
-53.9054
-22.4043
-130.636
-132.048
-147.988
-116.913
-41.4114
-51.9532
-57.0334
-94.6193
-65.4076
-100.959
-87.107
-2.64859
-16.6098
-60.7849
-43.1719
-43.4027
-123.512
-97.782
-11.9434
-9.30926
-150.723
-59.9384
-97.6331
-93.1808
-14.0418
-12.9878
-173.765
-141.256
-101.068
-153.109
-39.0724
-113.737
-106.76
-118.455
-46.3332
-49.3206
-129.992
-97.7865
-24.54
-37.7035
-23.9655
-104.626
-95.3165
-21.0137
-115.998
-3.88374
-11.6359
-44.116
-80.1941
-116.462
-16.7844
-32.7718
-42.441
-102.446
-152.128
-49.6883
-95.1456
-148.573
-113.486
-97.7272
-125.693
-87.454
-23.8883
-94.6416
-91.3442
-89.649
-81.9826
-38.4516
-82.4585
-86.6293
-173.263
-148.838
-159.899
-70.3016
-116.202
-64.4662
-54.4954
-19.754
-134.354
-170.56
-17.4524
-40.4652
-42.7024
-65.8618
-136.293
-155.212
-78.5556
-21.5457
-46.5192
-54.7366
-51.0863
-84.186
-12.1117
-115.377
-30.2922
-94.4969
-63.3727
-7.43286
-76.6155
-19.409
-44.3605
-140.896
-13.4576
-86.2284
-151.814
-147.6
-62.6596
-13.6947
-4.43409
-15.7957
-107.414
-10.6068
-48.816
-11.8555
-45.6179
-94.0671
-13.1222
-124.83
-93.7332
-114.247
-66.5338
-37.983
-51.1508
-58.4741
-91.2602
-38.2043
-128.442
0.221424
-110.097
-41.6194
-51.451
-129.288
-70.6026
-155.955
-95.2951
-10.8414
-10.1616
-33.7131
-137.636
-29.7943
-123.357
-49.4896
-88.0576
-81.0362
-49.3045
-27.9096
-99.2514
-23.3659
-127.465
-82.2684
-79.8759
-132.176
-123.969
-15.5874
-66.5629
-62.9624
-15.635
-141.063
-146.879
-87.7738
-134.847
-26.6616
-14.6919
-16.8424
-13.7216
-7.02208
-13.324
-89.233
-77.3662
-80.8114
-57.4429
-62.9354
-103.637
-63.3486
-3.41677
-95.5554
-149.764
-122.61
-24.6686
-16.7076
-112.347
-103.281
-14.311
-61.6212
-47.8757
-126.159
-76.556
-74.7207
-30.5256
-133.137
-153.787
-58.8046
-157.703
-129.626
-125.027
-45.9791
-67.3876
-118.664
-140.89
-38.3141
-27.6451
-145.262
-54.1412
-106.206
-39.3326
-34.3065
-21.8439
-132.155
-102.126
-17.0694
-132.636
-106.647
-19.6237
-30.8801
-142.274
-33.0884
-50.8756
-88.6228
-2.47392
17.5998
-123.664
-98.7083
-85.0286
-12.2843
-14.9273
-76.1154
-88.4102
-114.814
-139.808
-140.656
-49.6155
-150.766
-79.542
-151.021
-7.0723
-7.53149
-86.92
-116.211
-59.8444
-43.2941
-27.0749
-101.34
-95.2181
-93.6956
-149.723
-2.2756
-89.9964
-20.6384
-110.128
-125.93
-156.489
-129.132
-5.71538
-24.414
-115.522
-74.7006
-22.8864
-46.0327
-38.1678
-80.7817
-42.9423
-12.1571
-118.886
-160.887
-62.756
-7.56825
-126.968
-53.7575
-93.9649
-69.7221
-31.1149
-90.8883
-113.58
-126.683
-114.197
-61.3322
-17.4139
-109.879
-23.4207
-27.4347
-64.3461
-43.9325
-37.554
-36.9903
-46.1864
-39.7639
-45.5644
-71.7067
-155.666
8.7897
-29.4164
-33.1879
-58.3911
-72.4136
-122.822
-11.3004
-15.1716
-155.451
-100.349
-44.5279
-85.297
-106.255
-76.7927
-120.851
-9.4209
-10.301
-45.7728
-38.6832
4.65947
-104.241
-79.2205
-89.4411
-83.428
-53.5821
-103.852
-94.4921
-58.1375
-64.4189
-131.152
-67.1317
-106.894
-27.9314
-1.85558
-102.519
-45.6128
-117.618
-81.5683
-82.1154
-16.7913
-118.317
-110.084
-136.206
-50.5103
-87.4325
-41.1737
-63.1601
-50.9585
-110.594
-138.086
-10.2178
-147.971
-15.9112
-95.6664
-29.6154
-9.36513
-132.34
-9.55853
-102.425
-33.5728
-13.1929
-130.65
-35.1546
-44.2288
-52.9863
-11.5269
-65.4436
-20.1513
-37.7853
-34.9365
-19.9642
-10.5495
-24.7585
-39.146
-90.6463
-13.3261
-80.3117
-121.882
-151.668
-113.481
-65.8206
-16.8815
-114.33
-55.9866
-48.0297
-75.5055
-70.5856
-100.466
-75.3383
-12.6394
-111.541
-61.636
-45.8204
-57.0521
-6.79692
-143.217
-35.7695
-146.705
-146.122
-125.46
-121.113
-10.9746
-115.72
-122.104
-85.8062
-7.99912
-39.7526
-36.6248
-21.7169
13.3592
-15.5989
-81.9923
-129.348
-45.0151
-53.2355
-72.1747
-2.90085
-10.9179
-36.8734
-15.365
-128.128
-9.15821
-53.8332
-102.654
-92.532
-138.416
-84.5223
-21.9746
-4.25223
-71.1623
-157.744
-29.0438
-125.99
-157.568
-92.0113
-76.8786
-100.157
-123.656
-3.00581
17.2401
-4.45471
-19.7421
-50.5611
-26.6957
-127.219
-23.2691
-23.9295
-144.883
-109.19
-39.7515
-110.754
-44.0664
-111.439
-13.737
-15.2566
-149.67
-70.3319
-2.58109
-10.054
1.84662
-124.972
-8.17776
-132.28
-22.3143
-118.784
-60.4393
-113.462
-32.4419
-62.4949
-106.546
-42.7392
-87.6891
-77.0706
-73.1563
-19.1235
-117.318
-161.065
-7.78123
-96.379
-73.9122
-72.4972
-90.2506
-37.4404
-11.3113
-31.1512
-11.6779
-164.443
-21.7054
-140.633
-145.808
-117.257
-91.9759
-81.9984
-110.697
-110.25
-153.681
-25.4329
-7.49489
-11.7864
-112.835
-40.6792
-93.2043
-104.956
-48.2717
-68.5549
-57.3946
-28.9484
-120.425
-87.1122
-23.9247
-73.837
-9.59776
-8.80186
-34.4486
-31.7398
-33.0063
-139.153
-131.634
-119.827
-43.7617
-20.6565
-90.3581
-113.047
-23.4729
-2.09937
-12.7006
-9.8874
-77.2652
-37.7732
-23.9559
-31.2439
-7.90223
-57.0801
-54.0673
-72.2498
-72.6922
-82.7008
-19.6511
-34.5007
-128.172
-109.618
-99.8777
-0.642023
-52.7397
-88.8552
-95.1524
-126.372
-81.5141
-114.802
-26.1564
-89.25
-47.5107
-114.572
-22.4297
-65.366
-139.259
-7.22657
-4.43462
-15.892
-68.7161
-88.351
-86.7767
-55.8917
-63.655
-61.9365
-32.4359
-63.8063
-67.2221
-95.1
-21.4548
-130.698
-31.3637
-90.5699
-105.169
-89.9462
-12.8187
-107.636
-68.6128
7.73459
-2.78824
-130.626
-58.5995
-94.9317
-21.6499
-36.9114
-39.6485
-26.5732
-27.8697
-124.318
-131.388
-78.2287
-40.7156
-46.5418
-6.79449
-102.693
-49.1747
-36.154
-36.4626
-159.598
-104.538
-90.4462
-82.3785
-152.307
-93.6615
-20.9376
-19.0942
-95.126
-15.7344
-64.2743
-124.788
-98.5566
-6.18677
-2.16687
-13.2743
-9.72849
-6.81512
-56.4244
-109.693
-14.2765
-116.723
-20.6763
-35.382
-22.6537
-139.722
-89.7621
-92.5806
-119.358
-86.984
-53.4819
-43.7607
-76.7473
-115.095
-142.021
-4.81269
-103.22
-26.175
-55.5231
-42.6724
-13.3747
-51.8743
-64.0046
-77.7376
-41.6696
-10.8236
-141.411
-64.9406
-12.4412
-7.23888
-121.928
-109.733
-19.8269
-117.555
-38.3372
-39.1418
-135.765
-52.6017
-20.5186
-117.2
-82.3514
-99.1636
-61.3013
-55.2244
-29.1493
-41.8144
-9.32839
-44.3741
-170.152
-134.552
22.1473
-158.578
-11.3615
-7.09754
-138.072
-114.87
-37.5915
-62.4173
-66.7529
-26.3043
-31.9034
-50.9455
-52.7747
-106.645
-137.482
-45.1352
-107.987
-128.881
-23.2359
-102.808
-99.4122
-46.726
-36.7145
-77.666
-54.4942
-98.9121
-131.047
-55.4054
-100.193
-14.2096
-89.2675
-172.22
-52.651
-44.0371
-101.76
14.8993
-97.7788
-134.95
-87.1212
-9.67649
-116.252
-123.147
-66.0005
-80.6901
-35.8103
-147.769
-133.117
-149.537
-112.043
-135.325
-10.1718
-119.305
-125.995
-118.641
-64.6625
-60.084
0.526658
-32.2802
-167.648
-126.686
-28.5605
-70.4786
-76.755
-123.675
-106.71
-150.497
-146.542
-107.147
-21.335
-17.6994
-102.159
-34.9989
5.73016
-74.5744
-74.3625
-45.9886
-6.49419
-18.4906
-145.415
-113.441
-24.0999
-167.776
-41.3362
-80.1999
-7.93742
-137.205
-29.4341
-139.102
-70.9666
-73.8246
-101.362
-120.31
-31.3708
-42.5561
-59.4635
-17.2434
-25.0417
-153.723
-148.533
-42.9466
-10.2828
-85.2784
-56.7104
-102.427
-117.703
-89.722
-61.0862
-209.957
-102.426
-80.1279
-39.9643
18.4861
-35.8557
-132.513
-62.5392
-105.406
-66.2877
-4.33509
4.05641
-34.2988
-3.44336
-7.60372
-138.687
-161.229
-76.0546
-102.887
-152.151
-122.033
-3.72258
-17.8988
-16.8381
-56.305
-10.825
-12.0247
-70.5868
-93.4096
-174.762
-140.535
-159.954
-30.2399
-122.831
-37.9603
-71.1264
-39.0975
-53.4947
-21.9637
24.1454
-12.7141
-116.462
-118.102
-85.8452
1.65197
-60.09
-65.6577
-57.6073
-17.9512
-49.8433
-104.952
-136.813
-56.7552
-109.794
-41.1071
-40.8555
-6.83927
-115.648
-20.5466
-57.2366
-41.4744
-50.3398
-83.7374
-38.2583
-103.058
-13.9476
-27.5458
-144.155
-2.65637
-27.2207
-81.9228
-11.5769
-2.90066
-9.16807
-30.4535
-7.72422
-85.7845
-166.836
-128.174
-135.135
-126.44
-118.046
-47.0712
13.2454
-32.9176
-2.62534
-62.635
-34.5173
-13.6704
-73.1118
-145.536
-64.6944
-26.3965
-116.122
-144.714
-9.25888
-7.98813
-146.105
-13.171
-15.6218
-60.2037
-113.91
-124.325
-39.0174
-14.8507
-48.258
-51.3637
-13.566
-4.04629
-156.946
-114.44
-137.972
-12.8899
-15.3686
-50.7385
-5.77457
-24.866
-79.5045
-34.8847
-75.9254
-91.5421
-81.8066
-94.6897
-99.2187
-92.1269
-73.0973
-58.9779
-84.0341
-89.6418
-2.33107
-3.41074
-6.09839
-123.396
-27.6829
-31.5102
-92.7069
-13.1183
-69.727
-32.5588
-40.1197
-118.827
-127.12
-12.1066
-29.0188
-10.5462
-19.6427
-109.261
-54.7625
-59.9438
-104.713
-47.8572
-111.281
-126.97
-122.28
-122.63
-44.581
-31.017
-62.2611
-21.813
-6.58902
-92.3781
-102.756
-154.5
-159.099
-51.7703
-51.772
-63.8452
-153.564
-133.432
-20.5099
-83.8969
-5.3559
-10.8666
-12.2643
-121.079
-34.8006
-98.0829
-43.6961
-122.004
-102.263
-66.8039
-49.1673
-120.109
-62.3606
-42.2933
-1.18045
-105.438
-120.577
-109.021
-2.94353
-83.2309
-28.1279
-62.4294
-84.0323
-3.88847
-137.48
-79.126
-131.85
-52.8753
-99.2529
-156.626
-147.54
-115.767
-26.7391
-88.6424
-14.0296
-116.124
-101.626
-139.062
-36.8349
-40.1372
-48.2721
-31.5501
-30.445
-115.91
-2.54999
-4.01838
-124.7
-104.861
-21.2123
-111.807
-104.649
-45.291
-107.541
-50.2409
-76.5512
-80.9949
-95.9771
-57.7037
-64.1228
-55.6975
-10.1048
-100.236
-69.7176
-58.0573
-133.405
-99.9759
-8.69134
-11.3384
-25.1057
-98.0812
11.4829
-60.5926
-13.1876
-15.8641
-100.341
-66.1365
-58.2248
-138.497
-86.6918
-89.8744
-75.7698
-28.9605
-49.2452
-77.7272
-44.957
-31.1742
-157.136
-32.1939
-62.0319
-74.0715
-75.1299
-173.946
-39.1826
-121.702
-103.689
-10.4087
-48.7461
-33.2944
-7.27372
-151.121
-75.2812
-43.4812
-58.9643
-11.8573
-20.9339
-59.0067
-114.816
-14.0967
-81.4654
-56.2293
-62.1327
-36.0234
-35.5525
-119.599
-110.789
-58.9459
-139.61
-119.945
-30.0125
-15.4345
-38.9474
-32.3252
-83.4238
-82.2578
-87.1256
-130.612
-31.8484
-52.3854
-157.339
-37.3054
-12.9303
-110.931
-104.48
3.81136
-182.198
-113.426
-55.5061
-100.17
-119.135
-96.8646
-150.271
-34.8078
-129.59
-28.4587
-58.6015
-120.36
-50.3099
-49.4551
-156.306
-78.5371
-144.336
-112.98
-85.6494
13.4361
-37.216
-90.927
-39.7243
-137.684
-43.7989
-44.6615
-83.6499
-109.472
-26.6078
-136.929
-146.424
-83.1574
-186.349
-155.534
-37.4825
-89.413
-53.3915
-23.1868
-28.6128
-55.637
-81.8982
-108.359
-94.701
-125.296
-49.0696
-43.4979
-42.6105
-85.8214
-52.1936
-113.77
-84.6826
-98.0208
-61.121
-58.3436
-143.225
-170.158
-17.5714
-62.5758
-99.1124
-57.6342
-11.3151
-83.0815
-116.225
-106.372
-53.8384
-102.437
-79.2055
-97.2989
-39.9115
-47.5895
-48.2888
-126.35
-126.78
-105.03
-102.707
-39.1964
-35.9665
-113.202
-8.36291
-11.6082
-0.311604
-143.158
-8.96996
-73.6101
-64.9475
-41.2933
-33.9446
-20.3373
-51.4766
-66.4736
-53.3226
-80.6939
-87.4464
-63.7826
-34.8691
-56.4056
-120.24
-39.3479
-66.5949
-58.3571
-85.7233
-81.6479
-41.1317
-77.8726
-129.789
-98.5014
-31.0336
-17.1288
-22.5965
-16.8527
-10.0048
-114.256
-17.4239
-84.7259
-114.004
-116.554
-45.329
-9.83729
-55.4437
-26.0578
-69.8234
-149.684
0.52796
-46.0234
-26.3335
-102.412
-30.4175
-27.9482
-112.418
-78.0273
-25.389
-85.8476
-68.161
-90.5263
12.2978
-8.74466
-93.0897
-83.8076
-44.3017
-33.0857
-9.50152
-18.4594
-4.13014
-84.6749
-13.948
-48.8013
-76.7824
-47.9161
-48.1312
-74.25
-66.0206
-19.9804
-65.9488
-104.224
-45.3387
-91.9414
-44.986
-76.0386
-108.109
-98.6653
-86.679
-10.5221
-126.978
-3.89323
-8.10936
-43.0417
-47.2957
-29.9273
-69.7059
16.2373
-58.1351
-32.365
-82.0786
-83.632
-109.565
-17.0222
-51.7835
-52.9023
-35.7638
-94.8968
-86.329
-137.099
-153.415
-164.799
-69.4394
-131.242
-109.279
-6.55859
-107.559
-44.6948
-116.626
-116.382
-20.2263
-85.0513
-105.506
7.32226
12.4125
-3.10289
-80.6009
-78.1958
-16.8025
-17.17
-17.4591
-92.0277
-129.481
-105.896
-124.906
-65.9073
-127.389
-167.915
-18.701
-33.1089
-32.4741
-144.196
-120.355
-128.294
-21.6217
4.45741
-78.1444
-119.225
-96.3199
-61.1612
-53.871
-110.949
-180.121
8.57035
-163.331
-32.0283
-116.352
-63.7181
-143.983
-136.773
-26.0607
-29.8413
-94.1134
-7.68723
-124.123
-0.201718
-90.1722
-42.0649
-148.095
-132.212
-37.519
-8.18923
-51.012
-116.02
-138.086
-89.91
-42.7768
-83.2438
-52.8324
-75.5375
-92.8486
-105.498
-36.0874
-108.3
-38.8324
-24.5968
-25.1522
-164.781
-146.625
0.114309
-86.2184
-49.81
-105.406
-105.034
-65.1277
-115.657
-65.3544
-34.982
-38.8933
-161.25
-153.432
-152.946
-110.421
-58.1982
-14.7066
-3.06526
-48.9975
-112.562
-81.3706
-52.6947
-47.0188
-111.141
-100.664
-68.7414
-37.1638
-20.8414
-115.092
-38.0206
-74.557
-66.5143
-121.64
-131.147
-27.5231
-72.8623
-22.7929
-59.8489
-42.5009
-151.658
-16.4007
-77.3859
-80.5015
-83.7866
-90.7634
-55.8328
-118.083
-115.999
-111.629
-82.2554
-102.431
-143.795
-9.23186
-78.2837
-45.2178
-119.822
-101.834
-105.395
-99.8437
-70.3635
-33.8915
-108.216
-129.518
-36.1821
-112.054
-37.4899
-14.7039
-17.7021
-11.8195
-121.387
-45.8201
-58.9048
-80.9299
-62.2115
-62.1269
-122.118
-90.753
-124.339
-126.109
-19.3584
-51.5413
-70.4491
-8.46465
-80.1479
-77.9485
-56.5783
-45.0033
-121.32
4.6426
7.67573
-138.566
-109.438
-97.7117
-94.5244
-76.2235
-114.177
-9.11997
-119.275
-109.781
-45.27
-156.597
-147.599
-114.685
-75.2543
-104.412
-108.591
-125.968
-67.1246
-11.3214
-68.646
-22.6093
-2.74684
-104.995
-105
-29.5755
-19.5288
-59.094
-65.5527
-24.8681
-84.5032
-89.5814
-99.6994
-52.1004
-38.372
-49.5767
-73.3888
-149.372
-114.747
-11.4804
-119.053
-0.168436
-77.0436
-164.175
-162.774
-87.9207
-56.1581
-103.703
-77.2692
-124.895
-134.46
-142.159
-18.0603
-24.2023
-62.0753
-94.0477
-64.3017
-64.5995
-115.254
-120.24
-156.272
-100.522
-97.9875
-92.7094
-121.676
-92.3165
-36.4775
-71.7089
-53.754
-64.6457
-60.9204
-53.5719
-54.0434
-49.9211
-110.586
-67.3584
-115.014
-123.437
-47.0177
-65.0694
-39.6986
-128.541
-125.467
-1.19775
-36.9956
-73.804
-82.7595
-77.0486
-23.2753
-54.9078
-156.232
-70.0156
-104.886
-124.466
-119.201
-4.96973
4.28017
-117.771
-92.9191
-94.5316
-123.122
-102.83
-133.556
-127.866
-159.373
-43.7057
-129.028
16.826
-34.6052
-61.0689
-147.782
-89.5335
-86.4422
-90.1971
-110.92
-120.246
-47.5563
-120.481
-77.6344
-65.3839
-68.861
-73.7344
-16.4789
-12.8763
-6.74292
-6.91844
-64.7219
-36.8869
-144.127
-100.07
-119.085
-97.0498
-104.785
-106.144
-16.7136
-136.416
-50.2476
-52.6418
-107.332
-111.898
-124.65
-124.398
-96.0914
-66.952
-124.603
-29.3153
-29.0878
-35.0796
-161.842
-146.29
-104.96
-105.643
-106.975
-89.6273
-98.5959
-140.085
-128.028
-6.70583
-80.0383
-95.093
-102.576
-24.6073
-98.8854
2.67426
1.02024
-51.0717
-85.3624
-153.237
-111.138
-101.759
-82.3456
-138.74
11.5467
-149.285
-162.526
-48.2844
-106.896
-17.2096
-70.5734
-6.42808
-148.511
-154.721
-104.759
-61.3009
-15.9879
-19.1068
-150.618
-102.492
-13.6964
-87.3586
-42.8826
-70.659
-94.3208
-86.0982
-94.3482
-128.015
-151.868
-143.231
-20.9422
-64.883
-134.055
-14.8533
-88.4345
-73.0263
-55.7648
-155.883
-111.487
-119.09
-31.8082
-127.06
-14.2366
-69.8429
-41.9923
-79.0277
-26.3018
-33.958
-64.8706
-153.774
-86.287
-141.063
-15.994
-61.1734
-98.7099
-71.5788
-59.4603
-96.8347
-103.518
-36.1127
-87.7032
-142.761
-61.0625
-50.8961
-82.386
-130.069
-57.0604
-81.0459
-147.359
-55.6324
-119.384
-57.3739
-80.2468
-54.3057
-42.0993
-68.1158
-63.4413
-119.37
-95.5757
-102.885
-85.1812
-154.073
-96.2879
-65.0392
-64.7989
-50.3249
-66.3842
-72.5828
7.69368
-128.969
-137.189
-75.2836
-132.41
-82.7949
-78.51
-89.6359
-71.5179
-68.4942
-88.7369
-106.806
-97.2317
-90.0112
-64.5245
-75.8563
-55.7608
-131.54
-56.707
-13.9278
-40.5483
-23.1055
-68.5856
-65.1749
-103.76
-55.9366
-93.3432
-104.431
-65.9101
-28.2007
-19.704
-139.46
-103.01
-36.8434
-82.8944
-87.2001
-151.28
-55.316
12.2632
-142.546
-41.3129
-34.8678
-132.561
-144.648
-72.765
-62.5587
-114.188
-136.131
-14.7171
-147.655
-108.135
-156.246
-150.947
-56.9807
-43.4917
-42.7547
-34.9838
-25.2991
-7.32347
-54.288
-112.647
-110.577
-55.2241
-137.51
-17.511
-16.1515
-34.6894
-63.4204
-82.3003
-13.8748
-31.763
-32.2311
-44.4604
-21.3737
-151.869
-134.803
-81.5822
-73.1513
-68.0237
-33.3337
-48.1025
-157.068
-0.0154071
-138.656
-60.9043
-51.5253
-22.4222
-109.789
-65.0233
-63.304
-38.7065
-65.1817
-97.8841
-103.398
-17.4697
-58.3356
-66.303
-93.1137
-61.2727
-59.6947
-134.556
-128.931
-139.006
-151.807
-17.6066
-27.8088
-40.5058
-151.041
-127.601
-119.983
-131.597
-116.469
-49.9123
-119.073
-112.311
-93.72
-24.2579
-92.4322
-31.5134
-58.181
-115.234
-149.703
-117.021
-21.5716
-91.1229
-127.112
-99.8952
-67.0537
-42.2468
-107.156
-71.1024
-91.5177
-44.2908
-22.6949
-75.1703
-126.559
-107.961
-32.8806
-106.131
-110.347
-7.16499
-174.106
-152.189
-149.622
-91.8127
-40.0863
-108.28
-32.3191
-94.6904
-60.2776
-71.2664
-11.5368
-149.076
-151.456
-10.962
-65.7851
-149.436
-141.066
-73.1404
-74.3404
-145.201
-113.532
-103.813
-6.7368
-105.673
-39.9883
-99.993
-99.8452
-43.0779
-110.855
-26.2619
-87.0498
-89.9658
-56.8387
-138.482
-29.0937
-78.2718
-69.8332
-70.605
-73.8268
-126.874
-169.085
-55.1351
-99.069
-150.67
-104.574
-116.754
-40.2767
-146.771
-94.6861
-108.072
-114.11
-82.0694
-9.92317
-25.402
-19.223
-95.7797
-108.403
-65.3585
-27.9261
-44.2759
-83.7766
-56.7152
-136.039
-130.743
-80.0468
-29.4099
-94.7354
-104.366
-3.69448
-13.9878
-148.509
-125.534
-30.4012
-130.447
-142.746
-124.41
-106.337
-131.535
-132.573
-88.2422
-9.50846
-116.654
-115.958
-56.694
-107.817
-117.954
-125.309
-122.236
-92.093
-108.271
-96.7159
-124.087
-3.71568
-29.6079
-31.1509
-25.1106
-103.142
-105.557
-47.5997
-47.9833
-129.735
-64.0916
-13.7332
-133.373
-125.444
-5.83295
-66.81
-96.5508
-27.1822
-12.7457
-15.3638
-162.94
-154.435
-82.7563
-13.4924
-98.2771
-11.0436
-28.8729
-89.7146
-131.229
-125.298
-66.7139
-116.779
-50.7187
-116.045
-132.9
-99.2645
-133.278
-108.666
-12.7194
-29.4408
-68.9452
-91.4113
-19.8313
-19.9806
-40.8572
-128.955
-144.652
-92.0579
-13.3904
-119.648
-70.4789
-92.1201
-102.137
-126.228
-47.7314
-149.566
-10.1509
-78.6376
-74.142
-72.024
-67.98
-152.075
-96.6864
-109.552
-107.96
-133.343
-52.5765
-83.1341
-62.7462
-50.467
-31.3246
-12.2354
-165.526
-88.1182
-61.0129
-116.189
-107.617
-51.4096
-147.913
-83.6033
-85.9681
-97.7388
-99.5868
-7.68522
-28.5586
-148.326
-116.631
-112.378
-136.439
-109.422
-43.6741
-42.7043
-43.1325
-91.3643
-125.803
-178.438
-38.4727
-184.846
-5.46665
-19.0511
2.26669
-125.68
-143.691
-119.448
-31.5981
-150.56
-4.81527
-98.8963
-9.84827
-116.181
-120.316
-62.9246
-75.1632
-102.633
-110.145
-108.783
-63.5601
-7.36828
-16.7716
-108.195
-109.534
-18.5322
-105.144
-32.5698
-195.763
-157.255
-47.3089
-53.012
-40.13
-50.2086
-205.77
-69.4664
-85.8308
-113.618
-109.65
-89.3044
-21.5718
-135.544
-107.679
-135.37
-142.863
-39.0425
-148.42
-30.5514
-96.5354
-73.325
-39.7009
-82.79
-122.195
-112.528
-47.1104
-132.824
-13.6291
-107.071
-16.8643
-22.9617
-13.3327
-105.43
-29.8894
-148.573
-136.681
-114.184
-108.117
-152.426
-126.811
-54.9037
-32.6009
-33.1072
-115.509
-113.12
-100.078
-96.1599
-42.628
-102.159
-133.605
-13.144
-10.5535
-80.101
-94.1027
-17.7825
6.93514
-97.71
-15.8787
-20.0892
-16.5035
-19.395
-20.5183
-128.089
-15.9914
-128.118
-66.7321
-12.9419
17.2442
-83.4749
-82.0576
-117.061
-114.826
-15.4715
-97.6226
-76.3621
-44.0868
-152.791
-72.0087
-27.7173
-30.1194
-85.4387
-72.4657
-70.9766
-4.85975
-83.9648
-13.0013
-88.1059
-92.5523
-86.79
-31.7216
-38.574
-31.0725
-14.7191
-55.0981
-37.537
-72.7861
0.722115
-13.5882
-47.6523
-115.327
-121.652
-5.68164
-44.3261
-154.335
-95.3864
-74.6924
-110.892
-151.072
-153.36
-85.3695
-138.514
-91.4432
-58.2722
-67.3793
-10.434
-18.5143
-24.9434
-100.119
-158.089
-140.047
-108.985
-153.444
-132.763
-23.7754
-70.5114
-49.5991
-85.2696
-81.3517
-88.6763
-40.1325
-47.8162
-151.935
-75.3108
-108.2
-157.136
-151.842
-153.974
-135.101
-6.41128
-55.4476
-23.4726
-128.6
-128.311
-140.377
-117.375
-41.1973
-51.6335
-57.6641
-91.4723
-62.1113
-96.0914
-87.2383
-5.08333
-16.1515
-60.4306
-42.5314
-42.9033
-121.911
-96.9276
-11.9711
-9.31173
-148.993
-59.2673
-97.9207
-96.7783
-14.0435
-12.9975
-172.601
-140.983
-95.3965
-151.971
-40.3434
-112.53
-107.377
-120.214
-46.8447
-49.4247
-129.928
-99.3734
-23.9466
-38.1403
-24.1632
-105.619
-96.9521
-20.9808
-117.241
-4.10106
-11.5426
-38.9187
-79.3257
-113.29
-17.2617
-32.7643
-41.5993
-103.642
-147.586
-49.5294
-95.6557
-145.928
-115.441
-97.7647
-126.716
-88.3355
-24.5055
-92.1519
-88.9442
-90.8248
-82.8613
-38.4754
-82.7478
-84.2285
-172.241
-148.864
-159.197
-66.3382
-112.994
-62.8872
-54.9213
-19.7539
-134.581
-160.086
-19.5202
-41.3304
-43.1693
-67.5986
-136.315
-154.231
-77.4259
-21.5479
-42.2283
-50.738
-52.3549
-76.683
-12.0711
-114.865
-29.2568
-90.8704
-63.0396
-7.67651
-76.7986
-19.48
-42.3382
-135.562
-13.396
-84.1395
-151.741
-146.167
-58.8561
-14.3869
-5.00775
-15.4678
-107.074
-10.6007
-48.8158
-11.8621
-44.5733
-96.0821
-13.1074
-124.939
-95.9325
-114.679
-66.8287
-39.541
-50.7791
-62.602
-90.8045
-40.5979
-122.41
0.3023
-112.652
-40.8012
-49.7796
-129.619
-68.2073
-155.806
-98.2617
-10.8361
-10.1543
-33.9794
-137.077
-29.3516
-125.085
-49.3144
-90.1837
-77.3452
-47.3305
-28.087
-98.6096
-25.6168
-131.183
-85.7795
-75.1382
-130.241
-123.898
-15.8249
-66.2919
-61.7978
-13.9577
-142.309
-145.287
-89.9744
-132.605
-26.6626
-14.6981
-16.8352
-13.1369
-7.16249
-13.3083
-88.8543
-77.7713
-82.3213
-57.0861
-62.9853
-103.139
-63.3407
-3.75435
-94.2085
-150.627
-122.001
-25.7946
-16.4738
-111.955
-104.194
-14.3105
-59.4437
-48.0943
-125.264
-76.0707
-74.8186
-28.5083
-134.015
-153.473
-48.9237
-156.38
-128.155
-126.094
-48.424
-68.7769
-115.318
-139.843
-38.8124
-29.1611
-138.051
-53.4026
-106.113
-43.2043
-37.5146
-21.8514
-131.612
-103.572
-16.8547
-132.828
-102.319
-21.3947
-30.2305
-140.389
-33.164
-49.2189
-89.9463
-2.32841
17.0162
-123.65
-99.0927
-85.5673
-12.1615
-14.7511
-76.7738
-89.2515
-114.371
-139.612
-137.917
-49.8966
-151.154
-79.5155
-150.89
-7.00321
-7.7023
-89.3977
-112.674
-59.3476
-44.4249
-25.0285
-102.886
-98.1521
-82.5029
-144.856
-2.60935
-87.0947
-20.5704
-110.407
-126.016
-153.996
-127.717
-6.04068
-25.0979
-116.187
-73.361
-26.2249
-47.022
-36.2683
-83.6739
-42.0802
-12.3135
-119.519
-154.779
-62.9046
-8.44704
-128.056
-54.8275
-93.2004
-70.7063
-30.8566
-94.3994
-113.541
-126.841
-106.251
-64.8313
-18.3586
-108.472
-23.1858
-27.4403
-64.2235
-44.0461
-37.5244
-36.8067
-39.7171
-36.8611
-45.5171
-74.5988
-149.629
6.11028
-27.9981
-32.633
-58.3324
-70.2913
-114.446
-11.4422
-15.0864
-154.338
-101.979
-45.4524
-77.33
-103.602
-74.3853
-119.055
-7.4882
-9.94989
-43.1547
-39.6005
3.7463
-106.142
-80.2956
-85.6506
-83.8568
-50.4426
-102.812
-97.3966
-57.6267
-61.9263
-130.083
-66.3321
-107.152
-26.8935
-1.70589
-104.691
-46.7287
-115.854
-82.7121
-85.747
-15.2878
-112.796
-108.633
-132.272
-51.0925
-90.0245
-32.6939
-63.1615
-51.4579
-110.888
-137.52
-10.0492
-137.811
-15.9124
-96.6323
-29.4042
-8.2606
-131.914
-9.91081
-101.503
-34.3578
-14.2366
-131.659
-36.2622
-45.894
-54.0797
-11.5168
-65.9749
-19.4694
-36.1553
-34.2052
-19.6746
-10.5197
-25.6403
-37.0749
-91.2063
-13.3252
-76.4364
-120.082
-149.128
-115.224
-65.3531
-19.7454
-113.493
-61.3043
-52.9621
-73.9656
-69.1069
-104.395
-75.2342
-11.8199
-112.64
-60.1906
-45.6608
-57.306
-6.25306
-137.683
-35.7367
-145.173
-144.448
-126.194
-114.379
-10.7802
-114.385
-117.772
-86.6154
-13.7267
-43.9818
-40.0918
-22.2417
13.0094
-15.3755
-81.2097
-129.719
-48.1974
-53.0043
-74.151
-2.95336
-9.89776
-39.8361
-15.5581
-131.017
-9.13458
-53.7146
-99.7424
-94.6358
-134.915
-82.4353
-22.0675
-4.3567
-70.8626
-156.764
-30.0566
-122.961
-154.379
-93.9909
-79.7387
-100.224
-122.108
-4.95479
15.7336
-4.75559
-19.8232
-50.557
-26.6969
-126.396
-21.64
-22.7491
-141.779
-109.904
-40.0371
-107.989
-44.909
-112.72
-13.8477
-14.8431
-143.836
-66.2891
-2.99712
-10.074
1.39342
-123.926
-8.21903
-129.253
-22.3077
-122.298
-61.1198
-111.975
-29.489
-62.1389
-106.317
-43.1668
-87.4605
-77.02
-71.5096
-19.3216
-112.635
-153.895
-8.00878
-97.3074
-70.789
-72.555
-89.1278
-36.1775
-11.3289
-31.2817
-11.6866
-162.895
-24.3429
-139.236
-142.929
-119.217
-91.6596
-84.312
-111.354
-109.399
-152.725
-25.4378
-7.41506
-11.2602
-112.489
-41.1524
-93.7016
-98.5635
-48.5416
-69.9092
-58.6904
-29.5281
-118.486
-85.0799
-23.866
-75.6966
-9.59478
-8.79099
-35.0443
-36.1897
-32.2261
-135.449
-129.593
-123.536
-42.9487
-20.8555
-89.9316
-113.019
-23.7483
-1.98538
-12.6786
-9.89608
-76.2058
-37.9863
-24.4802
-31.1314
-7.88015
-57.5073
-57.2984
-69.1566
-73.0518
-82.0551
-19.272
-35.4952
-128.683
-110.952
-99.2321
-1.12678
-51.8062
-90.8894
-97.2851
-124.956
-78.3573
-113.921
-25.4921
-86.5839
-46.9859
-114.454
-22.4404
-65.2872
-138.957
-7.32569
-4.47138
-15.9158
-69.0076
-82.5136
-87.7919
-50.728
-63.7538
-58.4295
-32.4299
-63.9889
-66.0621
-94.8616
-21.5902
-126.977
-32.0462
-86.9777
-106.41
-91.4046
-13.0378
-100.458
-65.8669
6.80502
-3.51498
-128.03
-63.6304
-98.5037
-21.6894
-40.4876
-43.1664
-26.8358
-27.6298
-123.647
-127.892
-76.8297
-41.9741
-46.1787
-7.00307
-101.648
-49.4182
-39.1633
-36.0052
-152.397
-105.392
-90.0161
-81.8854
-149.775
-91.4599
-20.4824
-19.0963
-87.8576
-15.7314
-63.2106
-120.665
-93.7594
-6.48067
-4.66765
-14.8802
-9.7601
-6.82869
-51.4752
-109.566
-14.1797
-115.592
-21.9162
-34.1267
-22.6386
-135.536
-86.0615
-90.3867
-106.627
-86.6645
-59.4059
-43.8151
-67.5303
-117.934
-138.614
-5.65437
-104.876
-24.9291
-55.2791
-44.1385
-17.084
-53.9775
-64.5457
-74.5408
-39.5817
-9.81294
-141.456
-62.9477
-12.4358
-6.92806
-123.328
-110.877
-20.8738
-117.235
-38.3037
-39.1051
-133.87
-54.2162
-20.5176
-118.891
-84.2877
-99.0759
-61.2685
-55.1741
-27.6889
-41.9003
-9.51784
-42.3082
-168.821