/*--------------------------------*- C++ -*----------------------------------*\
| =========                 |                                                 |
| \\      /  F ield         | OpenFOAM: The Open Source CFD Toolbox           |
|  \\    /   O peration     | Version:  2212                                  |
|   \\  /    A nd           | Website:  www.openfoam.com                      |
|    \\/     M anipulation  |                                                 |
\*---------------------------------------------------------------------------*/
FoamFile
{
    version     2.0;
    format      ascii;
    arch        "LSB;label=32;scalar=64";
    class       surfaceScalarField;
    location    "10";
    object      phi;
}
// * * * * * * * * * * * * * * * * * * * * * * * * * * * * * * * * * * * * * //

dimensions      [0 3 -1 0 0 0 0];

oriented        oriented;

internalField   nonuniform List<scalar> 
186338
(
-0.00193074
-0.00172959
0.00374604
-8.328e-05
-0.0198892
0.0207324
-0.00158599
9.10096e-05
-0.0339738
0.007116
0.0230393
0.00372897
-0.00582558
-0.0158233
0.00192721
-0.00318827
-0.00118979
0.00398018
0.000388826
-0.00351968
0.000949528
0.00223755
0.000342685
-0.00232038
-0.00115141
-4.65865e-05
0.0190768
-0.0254419
-0.00891205
0.0145208
0.0164951
0.0130272
-0.0344967
0.0050624
0.00969425
0.0195451
-0.00913612
-0.021678
0.0216164
0.000293404
-0.00778497
0.0251217
-0.000715834
-0.0387344
0.00567052
-0.00158171
-0.00518255
0.00749847
-0.00159933
-0.000653167
-0.000412481
-0.00310422
0.000327754
0.00550318
0.000561863
-0.00710854
0.000966251
0.00111606
-0.00666696
0.000502285
0.00234909
-0.00368999
0.00157126
-0.000181882
-0.0125812
-0.0214701
0.0332949
0.000673448
0.0153206
-0.0230528
-0.00477607
-0.000471627
-0.00133628
0.000983598
0.000809286
-0.00582883
-0.00138254
0.00540245
0.0015399
-0.00992876
0.00305778
0.000895434
-0.0179876
-0.00928355
0.0290796
-0.00211996
-0.000476387
-0.00180464
0.00233971
-2.2749e-05
-0.0359948
0.025094
0.0131465
-0.00135888
0.00894922
0.00958346
-0.0335483
0.0148577
-0.0364218
0.0117107
0.00412284
0.00605505
-0.00668849
0.000637267
1.22816e-05
0.00375389
-0.00769004
0.0031582
0.000742798
-0.00149764
0.00249988
-0.00116769
0.000173095
0.00147397
-0.00257381
-0.000389595
0.000110015
0.00502778
-0.00774086
0.00250402
0.0136903
-0.0359961
5.87503e-05
0.00183958
-0.013194
0.0125725
-0.00121915
0.003097
0.00394362
-0.000867702
-0.038978
0.00551151
0.0320745
-0.00035739
0.000129745
0.00915628
-0.0165062
0.00736234
0.00610504
-0.00949892
0.00306597
0.000395819
3.77281e-05
0.0066743
-0.000485259
0.0190906
0.0056162
-0.0253168
0.000532736
0.00193966
-0.00313333
0.0011697
4.88803e-05
0.00364944
-0.00870661
0.00470908
0.00036861
-0.00463174
0.00999722
-0.00168945
-0.00381243
-0.00338333
-0.00148171
0.00355309
-0.00808276
-3.8992e-05
-0.00354775
0.0032924
0.000198271
6.16934e-05
-0.00149468
-0.00220899
0.000164988
-0.00920254
0.0222561
0.00189639
0.0349888
-0.010962
-0.0219134
-0.000315572
-0.00490153
0.000727117
0.00483497
-0.000648259
0.00113304
0.00539407
-0.00102484
0.00568096
-0.00498255
0.00111377
-0.00211493
0.00771849
-0.00601042
0.000226021
0.0045338
-0.00398198
-0.000756359
0.000221581
0.00325924
-0.00362265
0.000777421
-0.000404433
0.00488581
-0.00218246
-0.000359384
0.00412519
-2.76657e-05
0.000770875
-0.00134212
-0.00128866
0.00287757
-0.000246738
-0.0213296
0.0214111
0.00526913
-0.00482389
0.0164049
-0.0272442
0.00871775
0.00210149
0.0265299
0.00855348
-0.0388227
0.00329769
0.00468537
0.00106269
-0.00632755
0.000555541
-0.00325587
0.00333223
-0.000261601
0.000166339
-0.000267544
0.00430518
-0.000359456
0.0175878
0.0125905
-0.0328635
0.00266426
-0.0030355
0.00369813
-0.000830892
0.00302614
-0.00197768
-0.00155822
0.000494003
0.00306855
-6.18715e-05
6.79012e-06
-0.00595145
0.00424354
0.00143935
0.000191634
-0.0169727
0.0280794
-0.00178209
0.00208263
0.000120207
-0.00261209
0.000419802
-0.0226071
-5.4367e-05
-0.0361846
0.0183138
0.0214691
-0.00309996
0.0249526
-0.0283443
-0.0114519
0.0151563
0.000591442
0.00286688
-0.00386419
0.000442591
0.00597827
-0.0026729
-0.00308726
-0.000212281
0.0174066
-0.0286249
-0.00111649
-0.0248109
0.00321623
0.0161257
0.0053199
-0.00640487
-0.000481249
0.00705878
-0.000185214
-0.00454928
-0.000694687
0.00644267
-0.00124225
-0.0244335
0.00385525
-0.00431162
0.0165934
0.0216646
-0.00312701
-0.00798271
0.00627583
-0.000380881
-0.00471904
-0.00213335
-0.00269558
0.00328755
-0.000607534
-0.000590998
0.00127532
-0.00384067
0.00135559
0.00120599
0.0252708
-0.0133826
-0.00868847
-0.00324523
-0.00232118
0.00187292
0.000437214
4.31048e-06
-0.00352493
0.00135677
0.000232007
0.0177631
-0.0295436
0.00164576
0.0106839
-0.00222863
0.002095
0.000241868
-8.04286e-05
0.0039993
-0.00299095
-0.00112772
0.000117963
-0.00306426
0.000194664
0.00255532
0.000312866
0.0224863
0.00843169
-0.0321596
0.00128946
0.000340274
-0.00352409
0.00234981
0.000844294
0.00342818
-0.00285822
2.69315e-05
0.000881589
0.00312514
-0.000594018
-0.00125928
-0.00430751
-0.000448725
0.0354056
-0.0239666
-0.00584839
-0.00631772
-0.0023905
0.0025259
-0.000436879
0.00030639
-0.0121464
0.0272247
-0.0160897
0.00121912
0.0155606
0.00266008
-0.0202252
0.00241267
-0.0120383
-0.0169468
-0.00227152
0.00134524
-0.0023854
0.000671466
0.00038137
-0.00274255
-0.0215656
0.0223806
0.00147586
6.39078e-05
0.0032821
-0.00306496
-0.000284915
0.00321602
-0.00302733
-0.000122956
0.0209622
-0.0247643
0.000951156
0.00358561
-0.00628159
0.00144274
0.00311123
-0.00253646
-0.00108941
0.000526874
0.00331971
0.00103957
-0.00122454
-0.0108975
0.0161054
-0.00150527
0.00329815
0.00260477
-0.00448729
-0.00152485
-0.0222708
0.0139443
0.00604486
0.00261217
0.00346607
-0.000993765
-0.00295376
0.000511709
0.00356812
0.000434173
-0.000516478
-0.0251129
-0.0134674
-9.33176e-05
4.53317e-05
-0.00250298
8.33057e-05
0.0206925
-0.0358142
0.0103628
0.00499338
0.00157122
-0.00289899
0.0017237
-0.000422078
0.0039901
-0.00215124
-0.000307532
0.00676715
-0.0244729
0.00580253
0.00341127
-0.00389548
0.00381506
-0.00334316
-0.00131938
-0.000782016
-0.000101397
0.0210608
0.00154433
-0.00450486
0.00958567
-0.00343479
-0.00279461
-0.0322745
-0.0108386
0.00664982
-0.00139475
0.00520209
0.000746061
-0.00327429
-0.00120471
0.00718372
-0.00430789
-0.00214641
-0.000392131
-0.0040617
0.00830257
-0.00179354
-5.8718e-05
0.00417987
-0.00317658
-0.000933462
0.0252752
0.00123795
-0.00521627
-0.00145271
0.00532153
-0.000493322
-0.00184693
0.00200611
0.000194094
0.00519892
0.020664
0.00475734
0.00361009
0.00333113
0.000175862
0.000741113
0.000198696
0.00400574
-0.00149461
-0.00216539
-0.000340983
0.00323626
0.000639351
0.000148503
-0.00337902
0.000997259
0.00366599
-0.00080148
1.75762e-05
0.0148965
-0.00763869
-0.00403052
-0.00307452
0.000704306
0.00260912
-0.003029
-0.000313227
0.00355738
-0.00256602
-0.000279682
0.00410113
-0.00369858
-0.000456033
-0.0220004
0.0456364
-0.0217142
-0.00203176
0.0254473
-0.0324081
0.00351206
0.00342117
-0.00882682
0.0339426
-0.00261042
0.00248164
-0.00219159
2.39664e-05
-0.000334168
-0.00532143
-0.00111593
-0.0011862
-0.00240037
0.00324348
0.000331185
-0.00628191
0.000413292
0.00694862
-0.0058779
0.0014257
-0.00288242
-0.00143381
-0.00381141
0.0028643
0.0024561
0.00394118
-0.00590642
-0.000262408
0.00486644
-0.00334486
-0.00183056
0.000313357
-0.00284259
0.00350038
-0.000594544
-4.72762e-05
-0.000453057
-0.00401065
-0.000399699
0.00233644
-0.000121801
-0.00184097
-0.000402057
0.00324986
-0.000419548
-0.000358807
0.000844907
0.00211755
-0.00299563
1.83e-05
-0.0321913
0.0177937
0.0145017
-0.000272086
-0.0257861
-0.00833778
-0.000569159
0.00414124
0.0178641
-0.0225343
0.00111348
0.00266956
0.00141482
0.000782914
-0.0133563
-0.0215518
-0.000129623
0.00328781
0.000376111
0.00241479
-0.000984921
-0.00167435
0.000124023
0.00174032
-0.00460692
3.37248e-05
0.00592868
-0.00764348
0.00251538
-0.000768588
0.00756701
-0.00285634
0.00134758
0.0029896
0.000676521
-0.000100193
-0.0172369
0.00913819
0.0145337
-0.0334171
0.00101458
0.00495264
-0.00280928
-0.00194807
-0.000186569
0.00337413
0.00039281
-0.00205249
0.00576742
-0.00256082
-0.00112177
-0.0038246
0.00599895
-0.00266161
0.000579055
0.0158601
0.00465856
0.00148177
0.00246086
-0.00389842
0.00256863
0.00164062
-0.00474159
0.000503422
0.00494868
-0.000167361
0.00361038
0.000376872
6.38175e-06
0.00653928
0.0046324
0.00496644
0.0102713
-0.00293755
0.00779258
-0.0100632
0.0228763
-0.00871188
-0.00293482
-0.029304
0.0108924
-0.00314403
0.00155539
0.00113186
0.000456504
-0.00117296
-0.00160332
-0.000386729
-0.00777337
0.00599012
0.00215991
-0.000467797
-0.00416153
-0.00377717
0.000162555
-0.00192144
0.0026456
0.000552402
-0.00694758
0.00788829
0.000394898
0.00561502
0.00166619
0.0024079
0.00439931
-0.00279449
-0.00207826
0.0389922
-0.0200413
-0.0193943
0.000609293
0.00238735
-0.00323594
-0.000131163
0.00408718
-0.00231557
2.04213e-05
-0.0175185
0.000724063
0.00927969
-0.0080389
0.000351512
-0.00582799
0.00742604
-0.00182945
-0.000731028
0.0242734
-0.0240984
0.000728783
-0.00841472
0.0243376
-0.0174153
-0.000420971
-0.0303007
0.000410564
0.000640368
0.00292131
-0.00394389
0.000366396
0.00276193
-0.00226574
0.000121373
-0.00291516
-0.00146063
0.00416404
0.000219954
0.0079048
0.0296973
0.000446013
-0.00126751
0.0227509
0.0115559
0.00424727
0.00150047
-0.000496367
-0.00250022
-0.00409505
0.00170038
-0.000707359
0.00359833
-0.00284975
-6.44755e-05
0.00140377
0.00332132
-0.00505207
0.00034689
-0.00556442
0.00315453
0.00127772
-0.00295203
0.0060648
-0.00306757
-3.5341e-05
0.01557
-0.0304643
0.000205378
-0.00287494
-0.00121609
-0.000525564
0.00296997
-0.0107888
0.00223394
0.00534584
-0.02744
0.00104242
0.000763476
0.00194002
-0.00237976
-0.000323138
0.00202617
4.48579e-05
-0.0134951
0.0280139
-0.0150026
0.00057737
0.0006511
-0.00178036
0.000652348
0.00785155
-0.00519861
-0.00274336
0.000146855
0.00865842
-0.00249297
0.00173589
0.00118595
0.000478288
-0.00201457
0.000326652
-0.00227576
0.00127717
-0.000340977
-0.00316868
0.00086895
0.00097158
0.00293131
9.15967e-05
-0.00242634
-0.00055191
0.00734191
-0.00608586
0.00100693
-0.0021402
0.00128568
0.00218029
-0.00266978
-0.000801594
0.0121377
0.00507369
-0.00297858
0.00129855
0.00133154
0.000331953
-0.00147156
0.00191625
0.000300718
-0.00208606
-0.00409952
0.00630929
-0.000192236
-0.00241748
0.000832404
9.92447e-05
0.00618817
-0.00297662
-0.00194339
-0.00125802
0.0258101
-0.0180285
-0.0122786
0.00482538
0.00409452
-0.00113802
-0.00472295
0.0018127
0.0401362
-0.0173004
-0.000478163
0.00261555
-0.0052909
0.00076753
0.00159352
-0.0031767
0.00071419
0.000868464
0.0387997
-0.0366866
0.00900944
-0.00381384
-0.00266561
-0.000801154
-0.00055416
0.0034911
-0.00273837
0.000212254
0.00121599
-0.0048167
0.00215364
-0.000950322
-1.68378e-05
-0.00348758
0.00055456
-0.000134997
0.00565117
0.000113192
0.000489977
-0.0192962
0.0192121
-0.00376364
-0.0139923
-0.0054565
-0.00150538
-0.00728844
0.00660229
0.00237476
0.00276147
-0.00460952
0.000555528
0.0245468
-0.025767
0.00161277
0.0138553
-0.027848
0.000367073
0.00392406
0.00234907
0.0010349
0.00539114
-0.00385273
0.000991261
0.00259233
0.00143464
0.0017872
-0.00054829
0.000852997
0.00270159
-0.00281434
0.00017246
0.00733733
-0.000491854
0.00262038
0.00177246
-0.000909873
-0.00346148
0.00727007
-0.00107785
0.00616357
-0.000927574
-0.00347378
0.000730125
0.000533481
-0.0182369
0.0256262
0.000610738
-0.00793021
0.00294147
0.00685177
-0.00174816
0.00610192
-0.00580328
-0.000461146
-0.00180374
-0.00190467
0.00316055
0.000548619
-0.00810363
0.00043628
0.00189812
0.0276228
0.00181873
-0.00207239
-9.22556e-05
0.0029039
0.000573617
0.0254352
-0.0413722
-0.000422737
0.000669848
0.00186637
-0.00216093
-0.000354919
0.0035181
-0.00192094
-0.000911284
0.00947734
-0.00353772
0.0067801
-0.00258692
-0.000879992
0.00133661
0.00154466
0.000946118
0.00276811
-0.00110784
-0.00147202
-0.000197618
-0.00852205
0.0031029
0.00463754
0.000753627
0.00387446
0.0185325
-0.0173748
-0.0061542
0.00857436
-0.0125494
0.00708425
0.0184455
0.0180998
-0.00079121
-0.00260859
0.00324639
0.000641254
-0.017054
0.0198413
0.00191188
-0.0157332
0.000848525
0.00272935
0.026766
-0.0021739
0.00590431
-0.00244973
-0.000168335
0.020382
0.0154309
0.00114532
0.000707667
-0.00187518
-0.000319365
0.0241928
-0.0361606
0.0103276
-0.000338884
-0.00237269
-0.00289693
-0.0013535
-0.00302371
0.000397571
0.000287434
0.0386493
-0.0106841
-0.0291446
0.000739877
0.0300761
0.0106682
-0.00138123
0.00319751
-0.00210074
-0.000357627
-0.00282136
0.000154313
0.00278708
-0.000105114
-0.00362684
0.00121655
-0.000400493
-0.00456906
0.00186537
0.000682266
-0.00143771
0.0261803
-0.00100318
0.037224
-0.0242676
-0.0121605
-0.000222736
0.00217829
-0.00234997
0.000369619
-0.000182249
-0.000982338
0.00318278
-1.22996e-05
0.0303309
0.00691446
1.04851e-05
0.00225262
-0.00124615
-0.000167947
0.00185989
-0.000282337
-0.00515094
0.0023948
0.00415974
-0.000853127
0.00133344
0.0270584
0.00331435
-0.00475914
0.018805
0.00238223
0.000993206
0.000292503
0.00152854
-0.00166791
-0.000154868
-0.000770863
-0.00291356
-0.000165425
-0.00961245
-0.000294892
0.00137866
0.00846496
-0.0235453
0.016289
-0.000925012
0.0274563
-0.0350506
0.00715411
0.00121419
-0.00153506
0.00102744
-0.000282093
-0.00108262
0.00547691
-0.00305763
-0.0013298
0.0310749
-0.0325972
0.00110838
0.000520964
-0.00479219
-0.000467605
-0.000436768
-0.000167629
0.00336495
-0.00358287
0.000421852
-0.00059314
-0.000240168
-0.00383523
-0.00253982
0.000416589
0.0254414
-0.025087
0.00439892
-0.000233696
0.00284503
-0.0022076
-0.000386124
0.0199264
-0.00984369
-0.0105319
0.000397533
-0.000457956
0.00240411
-0.00240055
0.0004562
-0.000558316
0.00253874
-0.00204312
6.26339e-05
0.00167347
0.00186716
-0.00334371
-0.000192126
-0.000681491
-0.00348609
-1.36897e-05
0.000867992
0.00293358
-0.000236194
0.00201498
-0.00269007
-2.8429e-05
0.00171408
0.000168465
0.00133327
0.00444059
-0.00172935
0.0370338
-0.0282732
-0.00126556
-0.00066933
0.00325006
9.77942e-06
-0.00279446
0.00247591
0.000422039
-9.48177e-05
0.00220672
-0.0015868
0.000727701
0.00117617
-0.0002747
0.00352906
-0.00123627
-0.000275828
0.0308064
-0.0102856
-0.0194138
-0.00027425
0.00432366
-0.00110265
-0.000292769
0.00236653
0.00231038
-0.000358315
0.000839005
-0.00391635
0.000501324
-0.00233803
0.00243526
0.000102922
-0.00823844
0.00530679
0.00269415
-0.0060511
-0.000288467
-0.00167557
-0.00427125
0.00886655
-0.00106684
0.00693764
0.000855809
-0.00480468
-0.0024266
-0.000790853
-0.00315343
-0.000317253
0.00368704
-0.000172411
0.00381069
-0.00176034
0.00051566
-0.00180696
0.0033908
-0.000298463
-0.0046051
0.002152
-0.00153672
0.00362728
-0.000414189
0.00206578
-0.0026814
0.000162106
-0.00330482
-0.003515
0.000648175
-0.0182181
-0.0107137
0.0309286
0.000603497
-0.038689
0.0200994
0.000664109
-0.0306888
0.00254408
0.00890531
0.000772101
0.0187151
0.00747517
-0.00066999
-0.000937578
-0.000189262
-0.0176471
0.0181516
0.000100372
-0.00539041
-0.000216419
0.0346616
-0.00692281
-0.0273105
-0.000426529
0.024909
0.000905552
-0.0322166
0.0267824
0.00041126
-0.00128563
0.00115698
0.000773408
-0.00108816
0.000261947
0.00145226
-0.00501027
0.00056359
-0.00668096
0.000668788
-0.00184781
0.000133555
0.000173951
-0.00462173
0.00518403
-0.000737437
0.000706947
0.000612766
-0.000161461
0.0279509
-0.0081228
-0.00312855
0.000473386
0.00276952
-0.000121942
-3.73227e-05
-0.000593243
-0.00321811
0.00303886
-0.000102263
0.000301552
0.00266219
-0.0109165
0.0103766
-0.0020437
0.0225115
0.0116668
0.00560239
-0.00259069
-0.000575689
0.00327043
-6.56681e-05
0.00208689
-0.00271921
7.36019e-05
-0.000106062
-0.00223862
0.00208219
0.000274064
-0.000270337
-0.00277876
0.000192417
-0.00696554
0.019191
-0.00320209
0.00218691
-0.00129412
8.14933e-05
-0.000970031
-0.0246182
-0.000104144
0.00257877
0.0007693
-0.000941
0.00579597
-0.00206576
0.000555591
0.00304174
0.000128036
-0.000540527
-0.0172113
-0.0222266
0.00111387
-0.0239889
0.019438
-0.00398522
0.008597
0.000323399
-0.00246677
0.00226478
-0.000123429
0.000622724
-0.00268524
0.00266539
-0.000612675
-0.00330716
0.000862914
-0.000112008
0.0320565
0.00307446
0.00406143
0.00103555
0.00124322
0.000353402
-0.00322037
0.00164899
0.00134615
0.000232768
-0.00124795
-0.000488694
0.011298
0.010867
-0.0191099
-0.00506652
-0.0039899
0.00389146
-0.00101439
0.00113847
0.0283458
-0.00819877
-0.0209623
-0.000252887
0.00221202
-0.00217426
0.000509603
-0.000541204
-0.0232865
-0.00672897
-0.0310156
0.0169353
0.000733328
0.0270394
0.00273333
-0.00132132
0.00549997
-0.00488156
0.000728614
-0.00681851
0.000312846
-0.0184038
-0.00243991
-0.000166047
-0.000769613
0.00490548
-0.00167286
-1.41886e-05
-0.00824939
-0.00161835
-0.000956232
-0.00599481
-0.000846992
-0.00128749
-0.00338445
-0.0010439
0.00178492
0.00206292
0.00106958
0.00250827
0.000478753
-0.00686531
0.00151218
0.00703692
-0.00143406
0.002201
0.00204726
-0.000144794
-0.00462132
-0.00218409
-0.000172552
-0.0034191
-0.0217938
0.0259876
0.00230876
-0.00851912
0.0110248
-0.0045583
0.0246365
0.0191416
0.0014519
0.00206498
-0.000216551
0.00223542
-1.77024e-05
-0.000153737
-0.000506252
-0.00924465
0.00446947
0.00511563
-0.00046568
0.00278605
-0.00368961
0.000301272
-0.00351831
-0.00373591
-0.000827221
0.00303009
6.86786e-05
-0.0249223
0.012068
0.00156132
0.0312912
9.45321e-05
-0.00414978
0.0202455
0.00213514
0.00941054
-0.00515285
-0.000162857
-0.042538
0.0152626
0.0135555
0.0118589
-0.00271614
0.0019179
-0.000367493
-0.00258393
-0.000263357
0.00013585
0.0238305
-0.0172172
-0.0012655
0.0309066
-0.00859532
-0.0228728
0.00104412
0.00225589
0.00211003
0.000938042
0.00595595
-0.00447688
-0.0032309
0.00183696
0.00205241
-0.00218924
9.73546e-06
-0.000993732
0.00495168
-0.000343849
-0.00343927
-0.00221122
-0.00131517
0.00278608
-0.00138115
-9.91823e-05
-0.0218491
0.00106435
0.00404222
-0.0028393
-0.000835434
-0.00110569
0.00204369
-0.000506658
-0.000413609
0.000596942
0.00535577
-0.00673413
0.000804992
0.00611551
-0.00698917
0.00142883
-0.00311981
0.00130554
0.000496166
-0.00300813
0.00123106
-2.73395e-05
0.00254163
-0.00305936
0.000471435
5.61939e-05
0.00222087
0.000222479
-0.0160706
-0.0204916
-0.00169194
0.00829348
-0.00512904
-0.00342753
0.000307828
0.000487654
-0.0059662
0.00154392
0.0028732
0.00135212
0.0189974
-0.0199162
-0.00183224
0.000349921
-0.00777642
0.00933569
0.00200178
-0.00356016
-0.0271568
0.0150665
0.00207186
0.00352893
-0.00174951
-0.000316432
-0.0276954
-0.0040151
0.0317766
-0.000301453
-0.0229917
0.000443169
-0.00853734
0.00182624
0.0371357
0.000106471
0.0183142
-0.0371464
0.0181506
0.000282997
0.0344987
0.0052102
0.000536921
0.00307586
-0.000138208
0.0313696
-0.00773971
-0.00324977
0.00462119
-0.00665672
0.00231809
-0.000304228
0.00289197
-0.00329958
0.000841736
-0.000473535
0.0285978
-0.0144986
-0.0116958
0.00106255
-0.00301354
0.000510225
0.00326591
-0.00113671
-0.00211756
0.00267933
0.000181806
0.000135713
0.00393563
1.93506e-05
6.64696e-05
-0.019031
-0.00801173
0.0032963
0.000407567
0.000179862
0.00244766
-0.000374342
-0.000132013
-0.0026571
-0.0198391
0.000487949
0.029672
-0.00142117
-0.00537141
-0.00048959
0.00317077
-0.000353912
5.13382e-05
-0.0171342
0.00139093
0.00561354
-0.00612461
-0.000928956
-0.000305087
-0.00394058
0.00218158
0.00236972
-0.000611349
-0.00106276
-0.000302015
0.0205778
0.00460849
0.000337348
-0.000440016
0.00423919
-0.000581156
0.00355427
0.00181439
0.0260133
-0.0225419
-0.00346277
-0.000838777
-5.62389e-05
0.00199304
-0.00215339
0.00022295
-0.0361934
0.00883496
-0.00273377
0.000256768
0.000141116
0.00122135
-0.00243368
-0.00988863
-0.0175494
0.00142834
-0.002562
0.00941881
-0.00171078
-0.00135315
0.00209892
-0.00348068
0.000232667
0.0012651
0.00214725
-0.0036937
3.40657e-06
-0.000781319
0.00331618
-0.000437242
0.00317646
-0.000982204
-9.08115e-05
-0.00141357
-0.00196732
-0.000222287
0.0021047
-0.0025552
-0.00032974
-0.000264718
-0.00254222
0.00347163
-0.000674171
0.00151149
0.00129721
-0.00287295
9.0131e-05
-0.024196
0.0161497
-0.00528614
0.00210207
-0.0019283
-4.78946e-05
-0.00472559
0.00346735
0.000683893
-0.0031375
0.00170129
0.00181802
-0.000371757
-0.00125152
-0.00152608
-0.000350365
0.00372499
-0.00117357
-0.00208
-0.000482631
0.00391781
-0.00145766
-0.000247126
0.00115575
0.000439597
0.0335244
-0.0497823
0.0107709
0.00576178
0.02949
-0.00481494
-0.00178808
0.00033391
0.00104352
0.00300627
0.00318613
-0.00218925
-0.00133693
0.000333533
-0.0083112
-0.00163605
0.00093019
0.00717916
-0.00405055
-0.00370576
0.000532526
-0.0327238
0.000346163
-0.00379711
0.000883948
-0.000108442
-0.00197229
0.00118612
-0.00203888
0.00229795
0.00100199
-0.00126115
0.000477314
0.00189281
-0.000244321
0.00217529
-1.41165e-05
-0.000204821
-0.00502545
0.0005346
0.00192266
-0.00395112
9.71256e-05
-0.00406639
0.00322754
-0.000265865
0.00700168
0.00247376
-0.00907786
-0.000546272
0.0293639
0.000419038
-0.00311632
0.00259029
-0.000249205
-0.00282372
-8.96392e-05
-0.000203914
0.00544256
-0.000696742
-0.00101848
0.000355156
0.000655367
-0.0278896
-0.00850667
-0.00102742
-0.00250813
-0.000836318
0.000208553
0.0124982
-0.00624239
0.0065663
-0.00732993
0.00121255
0.00529805
0.000776039
-0.00381386
-0.0228197
0.0251739
0.0018781
-0.00639188
0.0251092
0.00220874
-0.00233039
-0.00407653
-0.000965786
-0.00632312
0.0318493
-0.00070732
0.00112884
0.000596796
0.00268339
0.000509643
0.000363584
0.0187174
0.00828823
-0.000986623
-0.00438883
0.000569257
0.00390835
-3.72145e-05
0.000615124
0.00309187
-2.66825e-05
0.0233408
-0.000847738
-0.0308097
0.00822334
0.00851255
-0.00168492
-0.00084316
-0.00188948
-0.000482462
-9.61789e-05
0.0320759
-0.0182906
0.00466466
0.0247938
-0.0022543
0.00160469
0.00918966
0.0216259
0.00142696
0.00407512
0.0209922
-0.0259753
6.57401e-05
-0.000106549
0.00279167
0.000385955
0.0263187
-0.0301205
0.00034268
0.000689171
-0.00174235
-5.98252e-05
0.00307888
-0.0051081
-0.000626072
0.0305981
-0.0295239
-0.000204406
0.00471614
0.000612187
-0.000721448
-0.000431709
-0.00218093
6.16071e-06
-0.0139373
0.0134536
-0.003352
0.00672235
-0.000202582
-0.00600405
-0.00090558
0.000707519
-0.000904336
-0.00326948
0.00270604
0.00162486
-0.00105164
-0.00153517
0.00316958
-0.00227221
0.000650145
0.0026827
-0.000966649
-0.000113322
0.00119502
-0.00364486
0.000530911
0.0288306
-0.000858252
0.00502756
-0.000631861
-0.0352074
0.0190519
0.00774293
0.00288934
0.00415928
0.000528002
0.00341871
-0.00101048
-3.50526e-05
-0.00249403
-3.32663e-05
-0.000304131
-0.0276034
-0.0211382
-0.00107033
0.000211013
0.0019069
-4.96474e-05
-0.00901688
0.0349117
0.000342971
-0.033455
0.0244313
0.000257915
-0.00635998
0.00272754
0.00148216
-0.00207472
0.000283809
0.00129841
-0.00325591
0.0027546
-0.000634755
-0.00218279
-0.000512533
-0.0133874
-0.0213694
-0.00735559
-0.00189598
0.00303315
-0.000519172
-0.00143662
0.00188999
0.000261196
-0.00871815
0.00436105
0.00436154
7.63784e-05
-0.00475954
-0.000742068
-0.0321163
-0.000338035
0.00613191
0.00193912
-0.00411507
-0.00161044
0.000685971
0.0024853
-0.000410956
-0.00237907
-0.000351632
-0.0045191
0.00300191
0.00129852
0.000221934
0.00325895
-0.00265353
-0.000691261
7.88537e-05
0.00136348
0.00516626
-0.000266741
-0.0173345
0.000863278
-0.00185445
0.00245482
-0.000425358
-0.00179297
0.00806185
-0.000574117
1.48006e-06
0.000549361
-0.00097079
0.000417212
-0.00298478
0.00227225
-9.0138e-05
-0.000634708
0.000425941
-0.00505795
0.00465744
-0.00077809
-0.00279962
0.00696738
-0.00386685
-0.000201214
0.00921926
0.0216362
0.000131507
0.00925112
-0.0363622
-0.000346992
-0.022327
-0.00111752
0.0224701
-0.038574
0.0107766
0.00531861
0.0211459
-6.216e-05
-0.00699876
-0.000678092
0.000533309
-0.0033172
0.000195626
0.00232433
-0.000628227
-0.00165473
-2.55966e-05
0.00285344
9.00137e-06
-0.00525273
0.00210798
-0.000891012
-0.0030189
-0.000607512
-0.000268427
-0.00490414
0.000198478
-0.0249938
-0.00373153
-0.00264102
-0.00366688
-0.00309218
-0.0264693
0.0125132
0.00261277
-0.00325562
0.00190543
-0.000495595
-0.00534488
0.0066452
-0.00145566
0.000228271
-0.00091595
-0.000319929
0.00178054
-0.000520363
0.0314935
-0.0128126
-0.017252
-0.00132645
0.00772629
0.000192426
0.00608699
0.000734527
0.0087953
0.0215065
4.4403e-05
0.00194038
0.00106596
0.000518357
0.000415375
-0.000770798
-0.00219103
0.00508166
-0.00338236
0.000515217
0.025709
-0.00495207
-0.0315082
0.00582223
0.0378773
-0.000157959
0.00540005
-0.0029851
-0.00257762
0.000164149
-0.000628117
0.00229999
-0.00149467
-0.000140786
0.00233326
-0.00241258
0.000192377
-0.000113887
-0.00238652
0.000667296
-0.000226139
0.00266346
-0.000103904
0.00221338
0.00435924
0.00104128
-0.00516245
0.00110597
0.00015485
0.00340493
0.00519715
-0.00136447
7.68746e-05
0.000733928
0.000137279
-0.00167803
-5.56257e-05
-0.00285483
-0.0035016
-0.00116654
0.00413519
-0.00587593
-0.00106343
-0.00644239
0.00278489
-0.00716753
0.00794588
0.000674139
-0.0013676
0.00469129
0.00179295
0.000198582
0.000373142
0.00253142
-0.00226162
-0.000632536
0.00290787
-0.000659774
-0.0334806
0.0238975
0.000963393
0.000836411
-0.00547407
0.000905239
0.00364221
-0.000351534
0.00334086
-0.0277596
0.00132303
-0.00195914
0.00211218
-9.33521e-05
-3.47955e-05
0.00261552
-0.00110668
-0.00353785
0.00202009
-0.00390813
0.00326452
-0.00278906
-0.00123318
0.000684232
-0.000280542
-0.00115791
0.00365065
-1.86672e-07
-9.65417e-06
-0.00121733
0.00188462
-0.000647656
-0.0059192
-0.000584239
0.00400257
-0.00077348
-0.00832908
-0.0165595
0.024334
0.000505729
-0.0188346
-0.00712741
-0.0166167
0.0240241
0.00222913
0.000683361
0.00318236
-0.000485253
-0.00192154
0.00635261
-0.000283506
0.0201587
-0.00100928
-0.0114299
0.0299407
0.00167169
-0.00280739
0.00783257
-0.00431986
-0.000544116
0.00265811
-5.44995e-05
1.63912e-05
-0.00327673
-0.00037246
0.000537587
-0.000749656
-0.00163974
0.000433535
0.00146608
-0.00279549
0.000575153
-0.00628994
-0.000384327
-0.000341057
-0.00249664
-0.000174844
0.00385625
-0.000457792
0.0208967
-0.0336932
0.00940097
0.00220306
-0.0329148
-0.0020319
-0.00111053
-0.000614691
0.000138941
0.00713525
-0.012253
0.00761021
-0.00196585
-0.000157629
0.00244608
-0.000324065
-0.00154029
0.000157321
-0.000586094
3.8986e-05
6.62382e-05
-0.00228432
-0.00115766
0.000112337
0.000945982
-0.00304573
-0.000190211
0.00444414
0.000136294
0.000867111
0.000657106
-0.00313725
0.000340403
-0.00105986
-0.00308816
0.00093383
0.000630432
0.0288169
-0.0288407
0.00313207
0.00472584
0.000417458
-0.00437938
-0.000800192
0.00255359
-0.000707597
0.000171675
-0.0064758
0.001467
0.0307957
0.00273662
-0.0178067
0.00273123
0.00185077
0.000118069
0.000445337
0.00197389
8.42993e-05
0.0056433
-0.00322491
-0.00190925
-0.000511902
-0.00550925
0.0019661
0.00444163
-0.000906289
-0.00225325
-0.00044029
0.0098189
-0.0290307
0.0104587
0.00923909
0.00063221
0.00221232
6.77966e-06
0.00397351
-0.00485252
-0.000370542
-0.0229409
0.00189343
0.00311921
0.000325855
-0.00327665
0.00141074
0.00047703
0.0315022
-0.0123519
-0.0181906
-0.000488049
0.00839468
-0.0112605
-0.0106902
-0.00374992
0.000649857
-0.000305238
0.00246449
-0.00027813
-0.0144692
0.00571509
0.00277575
0.00151634
-0.000190393
0.000576169
7.46267e-05
0.00137509
0.00208547
-0.00027851
-0.00464272
-0.000215731
-0.00408444
0.000258312
0.00418787
-0.00235163
-0.00291495
0.00104742
-0.00055745
-0.00222501
0.00326826
-0.00046641
0.00746551
0.00291269
-0.00782486
-0.00258816
0.00408032
-0.00795001
0.00359369
0.000294812
0.0228114
-0.0218405
0.00222675
-0.015605
0.000144956
-0.0326782
0.0083454
0.00175585
-0.014699
0.0289228
-0.0178612
0.00340034
-0.0328362
0.0114519
0.0227907
-0.00237442
-0.00911765
0.00126171
2.32382e-05
-0.00289443
0.00108941
-0.0019629
0.000887546
-0.0252982
-8.21444e-05
0.00367578
-0.000507067
-0.00288168
0.000281004
-0.00198951
0.00123952
0.00101973
-0.000295179
0.0187639
0.0116758
0.0113209
0.0013538
0.00731101
-0.00123217
-0.0204636
-0.00451305
0.00944804
-0.000915685
0.00078563
0.00380852
0.0158449
0.0096179
-0.0220529
0.000400539
-0.0142937
0.0305302
-0.000471854
0.00283571
3.93844e-05
0.00479755
0.00125871
0.000172071
0.00120762
-0.0018417
0.00102065
-0.000396013
0.00449498
0.00251111
0.00250637
0.000772133
-3.06989e-05
-0.00145222
0.00113819
-0.000200607
0.00324928
0.00168052
-0.000687575
0.000761954
-8.48962e-05
-0.000280932
-7.24266e-05
-0.000351388
-0.000293998
0.00177378
-0.000344248
0.00388737
-0.00152412
0.00037003
-0.00184642
-0.000141869
-1.75203e-05
-0.00294939
-0.000228102
0.00319768
-4.96095e-06
0.00340262
-0.00114956
-0.00202442
-0.000233407
0.00703984
-0.0064317
-0.00182583
0.00121255
-0.000570652
-0.000255772
0.00602676
0.00121251
-0.000306011
-0.000339016
-0.00143543
0.00595352
-0.000210012
-0.00843826
0.000936429
0.00208398
8.57557e-07
0.00245907
-0.00275143
-0.00025604
-0.00161897
6.22262e-05
-0.00777271
-0.0171009
0.00357174
-0.0145062
0.027314
-0.00284892
-0.00154397
0.00198449
-0.000270981
0.00439569
-0.000230112
0.00420974
-0.00401569
0.000178107
0.00231724
-0.000372383
0.00599853
-0.00193133
0.00200835
-0.00170962
0.000259202
0.00341892
-0.0034778
0.000326812
0.000102058
-0.00715287
0.00128679
0.00217783
0.00459994
-0.0001523
0.000925039
-0.00218081
-0.000306595
0.00183699
0.000781094
-0.00346264
0.00085227
0.0131818
-0.00162278
-0.00867603
-0.00239214
0.00195244
0.000503505
-0.00037489
-0.00263824
-0.00058503
-3.78587e-05
-2.36106e-05
0.00659524
-0.0388628
0.00141644
-0.00401516
0.000452751
0.0250989
-0.0165891
0.000461735
0.00175484
0.000912323
-0.00295161
0.000321749
-0.0189021
0.0165909
-0.000569103
0.00124979
-0.00339208
0.00169823
0.000413301
0.00242375
-8.79571e-05
-0.00210888
-5.08663e-06
0.022041
0.0115033
-0.00493449
0.00136694
-0.000498007
-0.00175317
-0.00338283
0.00348604
0.00247596
-0.00247664
-0.00106402
-0.00400931
0.0018442
-0.00967679
-0.00324286
0.023154
-0.0192469
0.000281028
8.09584e-05
-0.0061309
0.00720739
-0.00121036
-0.0221866
0.00288628
0.00227493
0.00100637
0.00845173
-0.0397691
0.00402288
0.0101973
-0.0293767
-0.000905614
-0.00012087
0.00172377
-0.000444813
-0.00201425
-0.00152506
0.000365517
0.00566115
-0.001513
-0.000551131
0.000438841
0.00184712
0.0036617
0.000132723
-0.00503926
0.000582745
-0.000836203
0.00384348
-0.000170502
-0.00197659
-0.000327725
0.0176005
-0.000739188
0.00185092
0.0033843
0.00380428
-0.00332681
0.00822552
-0.00353585
9.56698e-05