/*--------------------------------*- C++ -*----------------------------------*\
| =========                 |                                                 |
| \\      /  F ield         | OpenFOAM: The Open Source CFD Toolbox           |
|  \\    /   O peration     | Version:  2212                                  |
|   \\  /    A nd           | Website:  www.openfoam.com                      |
|    \\/     M anipulation  |                                                 |
\*---------------------------------------------------------------------------*/
FoamFile
{
    version     2.0;
    format      ascii;
    arch        "LSB;label=32;scalar=64";
    class       volVectorField;
    location    "10";
    object      U;
}
// * * * * * * * * * * * * * * * * * * * * * * * * * * * * * * * * * * * * * //

dimensions      [0 1 -1 0 0 0 0];

internalField   nonuniform List<vector> 
76020
(
(9.0537 0.802951 -1.29481)
(9.19026 2.69279 -0.465613)
(8.51379 -1.014 -0.134029)
(10.761 2.68263 0.0371869)
(8.95592 -0.208884 -0.717141)
(10.3928 -0.266356 0.631062)
(10.5142 0.130231 1.2209)
(6.66093 1.44907 0.319773)
(7.33647 -2.19372 0.789505)
(4.89137 0.954099 1.4235)
(8.33309 -0.100509 0.000501869)
(7.1097 -1.64288 -0.291851)
(9.02692 -0.108143 0.00172117)
(8.9896 -1.43443 0.147783)
(10.3966 -0.298417 -0.302733)
(8.92131 2.06503 0.491405)
(8.73508 -1.65833 0.139483)
(9.3747 0.713173 1.59451)
(8.04094 0.546705 0.00304775)
(7.80342 0.61515 0.041502)
(4.36656 -2.70516 -0.806377)
(8.19719 -1.67315 -2.01466)
(10.1156 -1.6022 -0.74117)
(8.87167 0.232061 -0.119313)
(3.0958 2.60489 0.230997)
(8.37013 0.169896 0.0500203)
(8.06008 -0.212651 -1.24728)
(9.20344 0.227989 -0.23525)
(9.53745 1.2006 2.34444)
(8.62864 1.88005 0.470007)
(8.02655 0.766999 1.99554)
(7.21545 0.364858 1.58656)
(9.0809 0.360386 -0.404118)
(8.33444 -0.129803 -0.000762613)
(6.3002 1.5084 -0.570258)
(9.63954 0.810493 2.10172)
(8.63783 -0.389242 0.00550505)
(9.34795 0.101348 0.974361)
(7.97987 -1.30542 1.31774)
(8.08486 -1.23999 0.938492)
(6.55139 0.813455 1.06152)
(8.76844 1.27772 -0.840541)
(7.51563 0.170035 1.4441)
(8.43569 0.127367 1.19443)
(6.44539 -0.115151 1.81271)
(7.43891 -0.59548 1.33776)
(7.65498 -1.02433 -0.342429)
(8.57821 -1.10634 -0.419503)
(7.18081 0.0622215 -0.508995)
(8.52751 -0.052992 0.238178)
(5.50065 0.35725 0.0325142)
(7.85883 2.87706 1.04306)
(6.85075 -0.688259 0.264987)
(8.59391 0.0026717 0.0185018)
(10.5692 2.6844 0.015023)
(9.66208 -0.252267 2.11605)
(10.2504 -0.471565 1.30627)
(10.4889 -0.0850571 0.500925)
(4.18265 -2.06203 -1.07864)
(6.91432 -0.79052 1.37995)
(7.44561 0.888181 -0.137828)
(10.2749 0.704092 -2.23076)
(10.4173 2.41148 -0.313493)
(6.39423 2.62369 0.483213)
(7.82874 2.87095 -0.463075)
(10.2721 -0.614141 -0.159118)
(4.2549 -1.24767 -0.438594)
(7.52488 1.21578 0.51051)
(7.45765 0.358381 0.561573)
(8.57747 -0.127837 -0.188634)
(7.41202 -3.06889 -0.87963)
(7.97942 -0.590703 1.27856)
(8.11081 0.0788273 -0.0675422)
(8.83267 1.50653 0.441529)
(8.8951 -0.633059 -0.417619)
(9.66786 2.07765 0.605738)
(7.98409 -1.24071 -0.575492)
(9.07895 0.886029 -0.246901)
(9.61431 0.324933 0.672193)
(10.5083 2.52608 -0.094275)
(7.97138 0.941635 1.46209)
(8.48959 0.875242 1.47822)
(7.84157 1.02695 0.18527)
(9.22146 1.36024 1.41237)
(9.04231 -2.25278 2.35924)
(8.05859 -0.550948 1.44109)
(7.97576 -0.571031 -3.72607)
(6.26735 1.09933 2.30751)
(7.60001 1.14329 1.48122)
(9.35604 1.02017 -1.52695)
(9.05283 -1.74025 0.464708)
(3.84118 0.270742 0.834027)
(7.64656 0.952117 0.128283)
(8.98669 -1.83503 -0.0435109)
(9.68809 -0.254227 0.0200212)
(12.6921 1.69736 0.891008)
(9.87348 1.15928 0.59519)
(10.2952 0.746025 0.86685)
(8.72628 -0.746793 -0.224427)
(7.92333 -0.762654 0.291591)
(8.08174 -0.401752 0.191557)
(7.73617 -0.0359678 0.0038413)
(10.9376 -0.67466 1.47431)
(5.39249 1.79055 -0.469556)
(5.51412 -1.16044 0.648048)
(9.28091 0.305364 -0.437696)
(10.9213 1.16478 0.350759)
(11.7411 1.3275 0.679642)
(9.4374 0.0151974 -0.45322)
(7.68854 0.443499 -1.80782)
(9.51633 1.53181 0.571541)
(10.0469 1.22812 1.67979)
(8.3911 -1.30353 -0.320009)
(9.53456 0.365378 3.5706)
(10.7446 3.71428 0.0697152)
(7.86069 1.35204 0.721102)
(8.12645 0.857225 1.09872)
(8.86547 -0.436912 0.00109901)
(8.15058 -0.618352 0.0901601)
(9.69307 1.0538 0.352232)
(8.08715 0.858739 -0.0499858)
(8.13381 0.471971 0.0209667)
(8.69893 1.02724 -0.104007)
(6.87156 2.65669 2.04366)
(3.4693 0.769513 0.812603)
(6.91785 -1.76578 1.52966)
(12.3394 0.831069 4.11471)
(8.76835 1.71147 0.0698634)
(9.76711 1.84196 -0.576649)
(5.83254 0.185375 0.145229)
(6.17531 0.681236 0.742824)
(9.61255 -0.893219 2.88464)
(9.593 -1.93318 1.09407)
(9.78896 -0.71669 1.92083)
(8.80358 1.97724 2.21782)
(10.6987 2.77195 0.562779)
(8.11552 0.413257 0.0635402)
(8.20277 0.693526 0.675613)
(10.5217 0.208972 1.46769)
(8.79393 -1.30834 1.48966)
(10.0237 -1.05548 1.08146)
(8.41333 0.382882 -0.120201)
(9.36978 1.44468 0.67744)
(10.1393 0.151564 1.25987)
(7.92289 -0.419032 0.924845)
(8.13115 1.01958 1.19517)
(10.4383 -0.869998 1.32653)
(10.1339 0.264691 -0.144142)
(8.68057 -0.0249763 -0.525395)
(8.30721 0.427816 -0.413053)
(6.83302 -1.4152 0.847683)
(6.88139 1.25921 0.146962)
(6.8829 0.0676781 -1.8974)
(7.68005 1.11694 1.77716)
(6.303 -0.56014 0.809951)
(7.02105 -0.924226 -1.33981)
(8.13219 0.335303 -0.713444)
(11.3154 0.986133 -0.218202)
(8.58707 1.63134 0.670604)
(8.95277 -3.48582 2.40483)
(2.33359 1.35561 0.281294)
(7.86617 -1.06376 0.97981)
(8.09818 -1.23399 0.599465)
(6.63569 1.69307 -0.258108)
(7.8048 1.99525 -0.000709415)
(10.3944 1.83979 1.37327)
(9.86559 0.86445 -1.21751)
(8.38085 0.0131604 -0.00420247)
(7.80402 -0.309884 -0.577957)
(10.1382 0.930693 1.08719)
(8.76874 0.992618 0.962211)
(9.32378 0.808514 1.32497)
(9.52756 3.17885 0.129057)
(8.54549 1.44348 0.702406)
(9.18825 0.354668 -0.87432)
(7.20502 -0.407681 -0.140041)
(10.1961 1.59349 0.291196)
(10.0317 1.39061 -0.195829)
(10.8573 -2.33241 2.0522)
(7.38823 -0.6282 -0.263201)
(10.2841 -0.0716026 0.745215)
(9.57459 2.67251 1.12266)
(9.53165 0.394849 -1.53051)
(6.69552 1.06995 0.370028)
(7.56177 0.730158 0.214131)
(9.93414 -0.228224 0.348268)
(8.05466 0.765544 -0.237665)
(4.71467 -0.720519 0.346513)
(5.87813 0.34725 0.478226)
(5.92918 -2.60692 0.779804)
(5.74624 -2.84412 0.714727)
(8.04748 0.44707 1.13526)
(7.9473 0.452837 1.06734)
(7.70652 1.04611 -3.72145)
(8.43326 -2.71144 0.0882071)
(13.5882 1.37724 1.94244)
(7.06275 -2.59419 1.67201)
(9.33087 -0.0238417 0.0215448)
(9.69547 0.176932 1.0787)
(9.13593 1.83699 1.2304)
(9.0138 -0.186223 0.0175726)
(7.6906 -0.95686 0.721338)
(8.2674 2.10483 1.39843)
(8.4281 -0.259295 -0.199753)
(8.31139 0.740898 0.198982)
(8.20152 0.656121 0.166924)
(11.8548 -0.0289688 0.191693)
(10.0573 0.578317 -0.454874)
(7.49725 -0.500764 1.12122)
(9.05911 -0.0078645 0.019282)
(8.4433 -0.159488 1.293)
(10.395 -0.0185665 -0.00909937)
(2.28384 1.01939 0.50577)
(7.59024 0.472851 -0.60802)
(8.68813 -0.245448 0.250987)
(9.7247 -0.386639 0.499235)
(8.23864 -0.472128 -1.68851)
(9.15951 -0.614073 -0.460017)
(9.13406 0.142051 0.924565)
(8.21167 0.858248 0.947668)
(10.5825 -0.283707 -0.787847)
(9.59023 0.029908 -0.0487787)
(8.19532 -1.45713 -0.621655)
(7.06202 0.0174569 0.497178)
(8.69245 -0.171908 0.00597916)
(4.66614 -3.10738 -0.495635)
(9.57197 -1.26935 1.49627)
(9.6384 -1.45718 0.665242)
(0.887265 -3.81668 0.659548)
(4.36223 -2.71168 -1.08338)
(6.03518 -2.18363 -0.0345985)
(9.45752 -1.44032 -0.915995)
(10.2574 -1.28688 1.87037)
(7.49796 2.22604 -0.373751)
(10.5743 0.0477955 -0.079993)
(7.68149 0.220603 0.261886)
(6.14246 0.521573 -0.109145)
(9.56129 -0.683794 -1.01825)
(8.55726 -1.52512 -0.786353)
(7.20996 3.29585 -0.304969)
(8.72423 1.3038 0.575118)
(6.56983 -0.166513 0.182132)
(9.94206 -0.0726655 0.0102344)
(10.0864 2.2609 -1.66046)
(9.36992 -0.938752 -1.32967)
(9.20133 2.22414 0.777535)
(8.25434 -0.868757 1.99344)
(9.52445 -0.230699 0.478736)
(11.9162 -0.422067 -0.293087)
(8.11577 1.61222 -0.729231)
(8.80307 -1.96549 0.241924)
(8.54869 2.69035 -0.830887)
(7.41556 -2.2056 -0.673113)
(9.7209 -1.38548 2.29923)
(8.02761 0.462841 -0.56017)
(6.31129 -0.45285 -0.695316)
(8.55336 -0.198669 -0.116965)
(8.79837 -0.197361 0.00907635)
(11.5497 -0.929674 0.757588)
(7.16667 -1.30367 -1.04232)
(2.7929 0.287604 -0.0900701)
(8.6368 -0.16232 0.618969)
(8.10948 -0.0158273 0.0592219)
(8.06648 -1.11276 0.554349)
(10.0327 -0.155622 1.27376)
(11.5174 -1.06247 1.30535)
(9.87763 -1.18194 0.826826)
(11.4916 -1.68332 0.208453)
(10.6055 -1.32736 -0.184)
(9.68266 -0.0964135 0.024275)
(7.29241 0.48208 0.999836)
(9.71368 2.77348 0.460133)
(9.49382 -0.0455917 -0.797655)
(8.65737 0.618816 0.334002)
(9.75682 0.59168 -1.53282)
(8.79912 0.918913 -0.679164)
(8.89367 -1.95603 0.0847143)
(5.4162 1.3394 1.13461)
(5.95295 2.65361 1.36821)
(6.52618 0.0993578 1.08557)
(7.6313 -0.350972 -0.0877282)
(10.5473 1.97611 -1.08933)
(4.88398 -2.81036 0.76644)
(12.4277 0.300722 -0.145305)
(5.2241 -0.903301 -0.818776)
(4.36459 1.31704 -0.322029)
(9.63565 -0.0659382 -0.142743)
(8.67985 -0.487418 0.123252)
(10.0313 1.3961 0.802139)
(9.6184 -0.842668 -0.00949911)
(7.52735 0.5135 0.294789)
(11.8735 0.783137 0.135984)
(9.97004 0.166455 -0.153443)
(7.43373 -1.07553 1.31371)
(9.16248 -0.255829 0.138513)
(6.14916 1.95835 1.93173)
(5.43229 2.13756 0.263114)
(8.46085 -0.803684 0.290726)
(8.83463 -1.54361 0.965414)
(7.67097 0.118951 1.17025)
(9.26435 1.24201 0.410422)
(8.62423 0.803657 0.125165)
(10.482 -3.02691 1.43622)
(9.08938 -0.958735 0.119566)
(8.47878 -0.0321586 -0.00295401)
(8.34337 -0.449476 0.0973283)
(8.80721 -0.288033 0.00723094)
(8.42122 -0.0544254 -0.00437182)
(6.87715 -1.59828 0.494934)
(5.5266 -2.04523 0.902123)
(11.5715 -1.4744 -0.398389)
(9.55736 2.26181 -1.26651)
(8.89046 -0.362514 2.47008)
(8.80361 -0.105714 1.09812)
(6.63135 -1.05129 -3.27501)
(9.7224 -0.115737 -2.25196)
(14.2825 0.610036 1.90255)
(8.05584 1.73852 0.984685)
(8.29491 2.22199 1.19608)
(8.58737 0.589244 1.08731)
(7.89748 0.537669 0.609098)
(10.2677 2.77411 3.79717)
(8.29943 -0.0385357 0.00518624)
(8.10315 1.56173 0.566194)
(8.53989 -0.319767 0.24115)
(9.31066 2.24323 0.922858)
(8.15775 -1.22076 1.1351)
(7.21992 -0.353169 1.19632)
(10.9466 -0.151126 0.88294)
(9.75357 -0.926575 -0.736052)
(6.23432 1.41641 -1.00862)
(8.13049 0.971836 1.0203)
(8.975 -2.73911 1.988)
(5.87752 -0.210186 -0.0465985)
(8.86387 1.1478 1.27319)
(7.43042 2.0815 -0.254074)
(6.47577 0.750209 -2.3772)
(5.90317 -0.808825 1.63341)
(8.47358 0.798794 0.539927)
(8.45764 -0.285182 0.831404)
(3.4029 -3.62903 0.191402)
(4.39073 -2.5441 -3.95766)
(2.38389 -1.68785 -2.33466)
(7.95888 1.60634 0.0832397)
(8.54781 -0.0739192 0.0164607)
(10.9419 -0.498467 0.319133)
(10.706 -0.0237267 0.455875)
(9.40195 -1.00015 0.35246)
(8.71322 -1.07364 -0.225505)
(9.96764 -0.212465 -0.265236)
(9.47409 -0.767773 0.865742)
(7.83218 -1.91353 0.727638)
(8.49394 0.0564376 -0.145613)
(6.38196 0.0453907 0.651303)
(7.91221 2.51081 0.992652)
(8.20606 -0.886014 -1.44924)
(9.50558 2.32833 0.997163)
(10.0358 -1.20329 0.568035)
(11.1359 -2.74246 2.03851)
(6.60463 0.813143 -1.3223)
(8.45511 0.524757 -0.135906)
(9.11481 1.35952 0.0518941)
(8.87162 1.05832 0.312623)
(8.70162 -1.93951 -0.71072)
(10.5683 0.852555 1.02134)
(2.67959 -3.3994 0.823477)
(6.69443 0.0518826 0.368405)
(8.20554 0.835456 1.14566)
(8.67369 -0.0146909 -0.000825011)
(8.55567 0.0709236 -0.140351)
(8.43937 -0.208504 0.00441705)
(1.17474 -3.75342 0.137933)
(1.31831 -3.51142 0.599192)
(10.2453 0.53592 -0.608466)
(8.53267 -0.163404 0.0110354)
(10.2256 2.37955 -0.260452)
(8.66331 -1.46398 0.995079)
(1.05683 -3.51682 -0.193844)
(5.5891 -1.13975 0.373808)
(9.60926 0.759126 3.61011)
(8.56654 0.383375 3.31345)
(7.98328 -0.0296412 0.524035)
(9.05021 0.849011 0.0880877)
(10.6545 -0.0258402 0.0047991)
(7.97244 2.43063 1.09767)
(8.26543 1.52632 1.29519)
(3.38413 -1.30181 -0.351993)
(10.3471 0.462453 0.790035)
(8.56264 -0.691146 0.687019)
(3.20808 4.41159 1.40179)
(8.31145 -0.00769341 -0.000144092)
(6.38984 1.5745 0.562759)
(7.87583 -2.72389 0.899978)
(9.72005 1.08667 -2.7945)
(8.76363 1.29533 0.265143)
(6.83832 3.90565 -0.380601)
(5.71758 -1.31435 -2.73091)
(9.06262 1.2209 4.48297)
(7.70579 1.61782 1.01232)
(10.1505 1.79232 0.508889)
(5.91548 0.0612325 -3.90484)
(3.70141 0.47386 0.895385)
(3.42563 0.486637 0.88)
(6.57439 0.259787 0.349123)
(6.14784 -0.300619 -1.84777)
(8.50575 1.37288 0.460465)
(7.77578 0.579212 2.10609)
(5.87498 2.26804 1.46554)
(9.11969 0.726342 -0.197554)
(7.62214 1.50817 -0.358254)
(8.66292 -0.481904 -0.667684)
(9.57298 1.00733 -0.748862)
(4.79278 2.38121 0.0623658)
(8.42863 0.951483 0.374789)
(12.4952 0.944558 0.251816)
(12.0973 0.128113 1.24494)
(9.36466 0.687192 1.15109)
(4.77311 1.97234 0.369714)
(11.2501 0.515183 -1.07872)
(9.42054 -0.164175 0.10503)
(7.42305 0.547914 1.23918)
(9.72412 1.50381 1.18896)
(6.96616 1.77112 0.0208914)
(7.76022 1.42663 1.49824)
(8.5528 0.284645 2.88303)
(9.80013 0.306024 -0.20821)
(5.36222 -0.069135 -2.53285)
(5.53338 -0.640486 -1.78403)
(9.47004 0.546589 -1.50507)
(11.7721 0.381916 1.17911)
(8.91406 1.62935 0.921338)
(9.50024 1.04862 1.19088)
(12.2344 0.589669 1.41411)
(8.78442 0.295366 -1.47241)
(8.31518 -0.0367806 0.00181098)
(8.30409 0.382493 0.162583)
(8.95512 -1.70358 -0.572005)
(7.66862 0.626357 0.0193612)
(7.86889 0.395798 2.19915)
(8.05801 0.317986 1.38474)
(4.95067 1.15926 -0.0405445)
(8.58107 0.169289 -0.170309)
(8.89209 0.692845 -0.951785)
(10.733 -2.79359 -0.313512)
(8.6457 0.626784 0.0868614)
(12.0407 0.204115 2.18884)
(10.3027 0.961247 -0.394674)
(11.6998 0.268702 3.49638)
(9.61101 -0.742676 -0.193278)
(8.91722 -0.531137 0.0227583)
(6.67873 -0.162705 0.128084)
(2.61713 0.715033 0.345354)
(9.02409 1.01518 -2.12516)
(8.62251 5.16083 -1.37137)
(10.8372 -0.487984 0.181335)
(8.61984 -1.00889 -0.534619)
(4.51958 -2.01605 0.259645)
(5.05714 -1.27618 0.537246)
(7.18953 2.56753 0.00727863)
(10.7238 -1.22731 0.596371)
(8.96008 0.6284 -1.16167)
(10.5283 -0.653261 -0.289088)
(8.97212 0.497844 1.36373)
(6.81345 -0.0335548 2.21249)
(9.39331 -0.4508 -0.174671)
(5.4617 0.84791 0.966662)
(8.13035 1.1192 -0.416545)
(8.50104 0.960211 0.302328)
(8.79752 1.22984 -0.41523)
(10.1483 2.13981 0.953824)
(9.89556 -0.00742669 0.0031419)
(9.58118 -0.0871739 0.0194841)
(10.2123 0.376239 1.08513)
(8.81462 -0.472092 3.29315)
(8.51501 -0.188563 -0.893622)
(8.14091 1.66232 -0.164654)
(8.06646 0.667804 0.0411309)
(9.51307 -0.0862773 0.0185104)
(10.7193 -1.5947 -0.0481197)
(9.16558 -0.497716 -0.0523753)
(11.5584 -0.208065 0.975389)
(10.0705 0.545833 0.827941)
(6.63888 2.03691 1.32335)
(8.18296 0.841773 1.17486)
(8.12542 1.40464 -1.04617)
(8.01787 -1.15233 -0.109183)
(7.46799 -0.687024 -0.59079)
(8.2929 0.303307 -0.0414844)
(9.40945 0.556562 0.524419)
(8.26938 2.34219 0.03307)
(9.60697 1.89161 1.19103)
(4.59543 1.34453 1.62033)
(1.78559 1.17811 0.0959682)
(8.8342 1.64263 2.00663)
(7.80092 2.19951 1.3216)
(7.6383 0.845001 -0.180779)
(9.91899 -0.0855716 1.7216)
(10.0897 0.0162555 -0.00910637)
(7.22864 -1.30175 -0.300969)
(7.80367 -1.2581 -3.17598)
(8.62846 2.04031 0.257277)
(8.61178 -0.0512704 0.0332438)
(8.2724 1.61437 0.623322)
(7.95534 0.72752 0.473368)
(9.88048 -0.426952 2.01992)
(7.96166 -0.303433 0.800532)
(10.5345 0.0252811 1.59799)
(3.0767 0.423596 -0.240927)
(8.1984 -1.36956 1.13136)
(10.5308 0.270037 1.23919)
(8.00458 -0.618636 1.60474)
(9.00267 -0.419215 1.29374)
(8.45739 0.445912 1.13444)
(9.08344 1.11876 1.62807)
(7.3405 0.431037 0.604557)
(9.04105 0.195233 1.25537)
(8.66122 1.17238 -1.78592)
(9.69909 0.646827 2.80915)
(8.73134 1.17248 2.69198)
(7.36714 0.337141 2.26334)
(8.8819 0.582963 2.01304)
(8.78362 0.838409 1.57739)
(11.7901 1.53183 -0.888926)
(11.5225 1.35958 -0.50815)
(7.2127 4.02183 -1.46112)
(9.04121 -1.19347 -1.44597)
(10.0576 -0.66641 -0.740263)
(10.7044 -1.11424 -0.148561)
(6.92223 0.0240047 -0.354354)
(8.38945 0.00952856 0.00444263)
(9.28595 -1.06933 -0.626672)
(11.3164 0.19506 -0.0932671)
(3.46114 -1.62493 1.34559)
(4.50395 0.611698 1.2227)
(4.19433 0.427602 1.11356)
(8.48375 0.203726 0.1547)
(8.40416 3.50473 -0.324459)
(11.4475 1.07161 0.989653)
(6.75201 -1.68079 0.735703)
(8.28412 -0.0868609 0.0018368)
(9.23248 -0.291398 -2.75519)
(8.86299 0.029319 -2.05069)
(9.32934 0.156382 2.54434)
(10.8207 -1.84106 0.292963)
(10.1143 0.0158679 -0.00967063)
(7.8203 2.95559 0.76717)
(7.02855 -0.975085 -0.335634)
(9.80892 0.143178 1.76547)
(8.97476 0.500927 0.0632682)
(9.49961 0.161999 -0.0957001)
(9.5982 0.153944 2.35198)
(8.2402 0.018782 -0.0525937)
(3.17068 3.96766 1.03411)
(7.81046 0.795618 -0.682181)
(7.73593 -1.40237 -0.0324096)
(11.4215 1.09207 2.90701)
(10.1078 1.27346 0.894018)
(9.53254 1.61382 -2.07071)
(10.781 -2.95548 -0.380812)
(5.82182 -0.685674 -3.63362)
(9.2051 -0.464775 -0.322656)
(7.83318 0.828505 -0.235709)
(10.1993 1.75091 0.436339)
(8.8175 -0.241929 0.00831202)
(6.74239 -0.542503 -1.36055)
(9.50074 -0.0896055 0.0107587)
(5.34308 -2.39296 0.9811)
(7.29184 0.624177 -0.207419)
(8.84119 0.00931758 0.00407988)
(7.55816 2.98964 -1.81606)
(6.71371 1.70648 -0.944255)
(8.37002 0.110164 0.802039)
(7.90307 0.515547 0.262829)
(7.10366 -2.30195 0.611126)
(8.68146 -2.20796 1.10262)
(7.53243 0.762745 2.37362)
(7.98604 0.130079 -0.172564)
(7.28778 -2.35348 1.99549)
(10.321 2.54015 -0.331374)
(6.74457 -0.268277 -0.142353)
(7.61533 0.33169 1.39007)
(8.30881 0.440488 -0.773069)
(7.69697 0.302761 -0.775679)
(10.9002 0.468721 0.691224)
(8.60765 -0.165218 -1.19991)
(12.2857 1.24844 -0.376707)
(6.32805 1.02515 -0.697755)
(9.14966 -0.130433 0.0118776)
(9.29881 -0.125576 0.0174476)
(3.28496 0.0232451 0.0570004)
(8.57279 2.12417 -1.93957)
(4.82936 -3.33202 -2.25334)
(9.60017 0.387749 2.15919)
(8.42777 1.70859 1.33132)
(9.34531 1.16914 4.08925)
(8.25427 -0.563523 -1.74866)
(9.24542 -0.0983036 0.699249)
(8.34263 -0.162619 1.02939)
(9.51032 0.701874 1.40515)
(3.58095 0.337763 0.618746)
(9.18966 1.23642 -0.128681)
(8.13009 1.4054 3.85239)
(9.30882 0.728025 0.635324)
(9.03499 1.08363 -0.350745)
(9.60028 1.8422 1.27522)
(7.4177 1.74254 1.5414)
(7.27158 1.07896 -1.39398)
(7.42891 -0.271618 0.0978222)
(1.84472 1.47289 -0.206018)
(8.24051 1.32483 0.415951)
(8.5121 1.45371 0.316976)
(8.8084 0.237953 0.0642626)
(9.97837 -1.64022 1.85907)
(8.31809 -0.0250632 0.00051599)
(8.66059 -0.0677489 0.0100834)
(9.06806 0.128093 -0.0831206)
(8.66508 -0.732008 0.0648103)
(7.61963 -0.8046 0.0809151)
(10.0519 0.0176267 -0.00291614)
(8.76586 1.03212 1.50574)
(7.89073 1.59154 0.89909)
(7.81191 1.13225 1.13015)
(6.96456 1.31287 -1.02679)
(8.85932 0.829979 1.10086)
(8.43835 -0.382044 -0.677261)
(9.65878 -1.77052 0.512771)
(9.19612 -0.392675 0.420381)
(8.74082 -1.78819 -0.060038)
(10.599 -0.282149 1.4517)
(9.00036 1.90505 -0.82258)
(1.55129 -4.3988 1.30668)
(9.28544 -0.212173 1.39573)
(8.27636 0.0528861 -1.72206)
(7.32372 0.534064 -1.34205)
(8.72251 -0.0364599 -0.00173582)
(6.80005 3.12811 0.832316)
(8.71043 -2.24194 0.297455)
(7.9663 0.342576 0.257316)
(8.90991 1.41475 -0.0202543)
(9.15176 1.05723 -0.307364)
(8.0853 -0.919082 1.67716)
(7.58133 -0.0888107 0.108553)
(9.95584 1.42011 0.686806)
(8.95869 -1.23025 -2.49931)
(10.4989 1.32286 0.591336)
(8.73448 3.00134 -0.435209)
(5.71346 2.31907 -0.118368)
(7.46176 0.434758 0.584504)
(6.97022 0.735423 1.35971)
(9.05945 -0.108003 0.789333)
(10.2198 0.262364 -1.49679)
(7.17399 2.3968 0.302359)
(6.29242 0.820652 1.02174)
(11.1712 2.3632 -0.481603)
(9.22409 -1.87443 1.458)
(8.51088 1.41019 -0.644295)
(8.57488 -1.3994 3.07176)
(7.30695 -2.24004 2.22826)
(8.20568 -0.133317 0.0087661)
(8.07798 1.34237 -0.486382)
(8.87293 0.395318 0.320656)
(8.8615 -0.171669 -0.23475)
(6.28293 1.29833 0.110753)
(8.51069 1.05983 0.094274)
(1.99268 -0.716676 0.305978)
(-0.171922 -3.59775 0.45716)
(9.07286 0.62356 -0.065784)
(5.51904 -0.89577 0.995309)
(8.68656 -1.75134 1.4401)
(10.3054 0.478548 2.65679)
(7.13419 0.917226 0.459724)
(4.91073 -0.435679 0.458393)
(10.5308 0.943074 0.592244)
(8.3482 0.0772029 0.3182)
(8.44036 0.203385 0.291123)
(7.75478 0.435121 -0.357308)
(7.4413 0.651928 -0.0135519)
(7.28381 -0.013546 0.837273)
(6.16877 1.42724 0.263142)
(8.81866 1.57673 -1.09164)
(6.58317 0.982909 -0.233709)
(7.95947 2.14652 -0.0752451)
(8.72613 -0.624355 -0.565402)
(10.9635 0.996463 1.08556)
(7.63194 -0.225025 0.409654)
(12.2732 0.915679 1.08839)
(8.15715 0.199054 -0.623047)
(9.52296 -0.247101 0.182694)
(8.06407 0.938761 2.9066)
(8.88824 2.67436 -0.306866)
(6.93823 0.995979 1.19125)
(5.10525 1.20845 1.02767)
(6.68734 -0.122563 -3.65927)
(8.30116 0.971207 -0.917911)
(7.82041 1.05882 -1.0968)
(10.3691 0.749783 1.62239)
(10.5874 -1.18914 0.734605)
(7.71805 0.114481 -0.422692)
(8.15993 -0.193371 -0.239725)
(6.60009 -0.93984 -0.513807)
(7.26692 0.552169 0.718879)
(6.45552 1.66742 1.05812)
(8.5113 2.20591 0.404522)
(11.5341 -0.0760477 2.77905)
(9.6551 -0.163703 -0.123986)
(4.18104 -2.34929 1.5666)
(8.52974 0.0148875 0.467391)
(8.42667 -0.125433 1.11299)
(4.92789 -2.14546 0.420708)
(9.78066 -2.4014 2.46483)
(8.23854 -0.154255 0.197242)
(7.74269 1.26843 1.45527)
(3.55231 1.10563 0.724224)
(9.94984 0.0626411 -0.0932178)
(8.76476 -0.136529 -0.472302)
(10.8897 2.26191 -0.522821)
(8.52554 -0.573666 0.137409)
(4.61566 0.836719 0.914693)
(7.01402 2.22155 -0.510907)
(6.57437 0.907539 1.27654)
(8.38258 -0.642854 0.668383)
(7.28633 2.05086 0.758991)
(4.18096 -1.81066 -0.709232)
(7.60112 -0.399236 0.224444)
(6.77592 1.5434 -0.520846)
(7.70785 1.17417 -0.82363)
(11.4372 -0.152093 0.177928)
(10.5383 -0.788192 2.47361)
(7.17918 0.542986 2.08397)
(9.12598 2.11161 0.206741)
(8.07639 -1.93431 -0.250071)
(8.32836 -0.100331 0.00081822)
(9.39642 0.665763 -0.177034)
(7.38685 0.278971 -0.750698)
(8.9462 0.3504 -0.169402)
(8.55023 0.00737176 -0.167255)
(6.61724 -3.03357 0.225624)
(4.87964 -3.04055 0.207693)
(8.67121 -0.000768695 -0.205932)
(9.20124 2.10092 3.12774)
(10.8699 -0.986194 1.37163)
(1.92793 -1.40996 -0.657091)
(6.98757 0.0192625 -0.626131)
(10.5557 1.36563 2.129)
(8.77067 -0.399814 -0.197966)
(12.236 -0.915736 1.22948)
(11.9032 1.05828 -0.813527)
(7.66122 0.486126 -0.257489)
(8.47186 0.964498 0.0530159)
(10.2875 1.72257 0.662299)
(5.40552 0.820701 -1.07989)
(4.6108 2.53089 -0.0992071)
(10.6152 -0.0424162 -0.041327)
(8.61888 -1.39612 0.743389)
(6.8051 -1.29864 0.133704)
(7.8823 0.307432 -1.0456)
(1.34142 -0.656563 -0.973773)
(0.287654 -2.00208 -1.165)
(4.94645 3.8603 0.703122)
(4.16196 0.203385 -1.19641)
(1.82769 -2.78301 -1.04232)
(8.80169 2.74904 0.704105)
(7.83025 -0.167296 1.88875)
(9.71544 -1.56731 0.845472)
(9.52698 -1.5252 1.0249)
(8.32609 0.823785 0.286616)
(8.65925 -1.2004 0.456654)
(8.11492 2.64597 0.603614)
(9.50959 0.0777101 0.917488)
(8.72929 0.488741 1.05589)
(8.97147 1.4061 -0.309137)
(11.1387 -1.84517 2.58581)
(8.17172 0.692092 -0.18076)
(8.46096 -1.5051 -0.426063)
(6.68955 -0.453423 0.13362)
(8.11406 0.429892 0.134677)
(5.62275 0.0697976 -1.60692)
(9.69499 0.0266136 0.536934)
(8.44083 -0.154265 1.91435)
(6.66488 1.48206 1.76294)
(3.39532 2.76216 -0.209914)
(9.25995 -0.887541 0.135476)
(8.75879 -0.774332 -0.192965)
(9.71148 0.301582 -0.464279)
(6.01045 -1.86243 -1.70763)
(7.79812 1.49909 0.427414)
(8.23066 -1.07109 -3.72585)
(7.96349 -1.77309 0.299089)
(4.12145 -1.04983 0.818317)
(9.18983 1.54286 -1.04124)
(9.95495 0.861358 1.03174)
(9.4868 0.769598 -0.026415)
(11.5117 2.14976 -0.552233)
(8.59388 0.00573134 0.00547878)
(7.17737 0.127963 0.10211)
(8.05504 1.38057 3.43077)
(4.60682 -2.93429 -0.0825341)
(7.9028 2.75925 0.592594)
(7.57584 1.26105 0.237025)
(6.84439 -1.85807 0.597752)
(7.0196 -0.0754234 0.134122)
(3.81376 -3.18404 0.270329)
(9.01512 3.57096 0.244042)
(4.0905 0.389418 1.78944)
(3.29286 0.433651 0.187993)
(10.6961 0.630989 1.0877)
(8.84373 -0.245203 0.0156604)
(6.63976 -0.167015 2.25717)
(7.80846 0.504845 -0.67631)
(9.2809 0.26237 0.250816)
(7.88166 -0.0649616 -0.409379)
(9.1393 0.37225 0.395652)
(8.9175 -0.24588 0.00111411)
(3.78458 0.746545 0.915629)
(6.00843 -2.20767 0.673391)
(7.28172 -0.0709412 1.15342)
(8.75064 -0.184736 0.00811644)
(8.40023 -0.436667 0.761555)
(9.67576 1.93653 0.546927)
(11.6711 0.24621 0.731803)
(7.41873 1.8059 1.12682)
(8.30915 0.0964536 0.537669)
(3.76079 -0.497381 0.677686)
(8.18355 0.76609 0.65814)
(10.9876 -1.49129 3.68777)
(9.5947 -1.46373 3.57431)
(9.027 -0.416622 -1.20909)
(8.50784 1.6299 -1.02951)
(9.17143 3.06205 0.388724)
(8.74692 -0.81594 0.0327666)
(7.20506 0.339568 -0.433806)
(7.47224 0.151702 0.830233)
(6.35354 1.0791 -2.11012)
(4.58336 -0.0149512 -1.96916)
(7.85696 -0.365531 0.0660763)
(8.06849 2.31428 1.16849)
(10.5912 2.59546 -0.259419)
(9.06093 -1.74739 0.639012)
(9.02855 2.65466 -2.44008)
(10.8029 0.541183 -0.125423)
(8.36577 3.18466 -1.31873)
(10.8017 1.83071 3.03032)
(9.828 0.0277065 -0.214542)
(9.66452 -0.781263 -0.0265504)
(9.83194 -1.18342 -0.563422)
(8.31866 1.31994 1.0047)
(4.16714 -2.69303 -2.00116)
(8.71833 -1.94632 3.05975)
(6.88516 -0.913455 2.21777)
(8.53884 0.959147 -0.319399)
(5.71828 0.935391 -0.449902)
(8.19253 0.275078 0.933494)
(8.01285 -1.37154 1.57201)
(9.52537 -0.54392 0.782813)
(8.29448 -1.28307 2.37133)
(8.53924 0.367865 0.149644)
(6.30218 1.99544 0.806201)
(7.8359 -1.65909 0.127311)
(7.89493 -1.73186 0.458654)
(6.10611 -0.782815 0.638749)
(10.7359 0.0320713 0.0212509)
(8.05461 0.162617 -0.301925)
(9.99929 -0.0223147 -0.0921552)
(8.17359 1.24177 0.381525)
(8.12388 2.09975 0.235553)
(8.45212 2.47631 -0.00818626)
(11.6745 1.13979 0.452737)
(10.0126 0.0117176 1.50117)
(8.65269 -0.292904 0.111387)
(8.38877 0.0794862 -0.513027)
(8.27438 0.997571 0.606463)
(11.3985 -0.462224 1.02811)
(3.60614 -1.0461 0.658991)
(9.22875 1.75841 -0.2251)
(8.18138 0.402065 -1.29474)
(7.54062 0.730299 0.765329)
(7.38369 2.04525 1.69714)
(9.32734 0.207991 -0.497757)
(7.58278 -0.794215 0.163587)
(3.46045 -1.55674 -0.315354)
(8.88623 -0.0291002 -0.13084)
(7.36297 -3.38279 0.28797)
(8.26813 0.131932 0.0348451)
(7.4827 -0.39423 -1.30798)
(8.95962 -0.0295791 -0.111235)
(10.5275 1.81416 0.71017)
(7.38805 -0.510975 0.00672441)
(6.63626 -2.46052 -4.22197)
(11.6427 2.28355 1.40129)
(10.2081 1.91319 1.92655)
(9.6851 -1.6715 1.68329)
(9.33872 -0.924128 0.857555)
(3.60737 0.77793 0.964332)
(8.66442 1.96579 1.62986)
(7.24717 0.253098 -0.253794)
(8.47491 0.0472527 -0.306542)
(11.0113 0.69735 -0.0450808)
(9.15731 0.330693 -0.12071)
(9.98639 0.00294977 -0.14672)
(9.83332 -0.282695 0.0176627)
(6.32124 -0.215043 0.388191)
(9.14902 1.94902 -0.0280196)
(9.45769 0.508193 -0.0938936)
(7.87553 1.88248 0.0517449)
(8.31933 -0.0313142 -0.00704485)
(9.99255 0.435178 2.33937)
(7.94066 -1.37037 -0.359377)
(9.93994 -0.10301 0.844356)
(6.87381 0.129828 -1.85627)
(9.7885 2.18612 0.42481)
(8.17771 1.1351 0.186369)
(3.98491 1.12489 -1.63534)
(9.26783 -1.71419 2.2151)
(8.34419 0.846457 1.04542)
(9.06939 -1.40058 -0.638238)
(10.9543 0.0567021 -0.00199893)
(9.44153 0.543317 0.416719)
(12.5169 1.88817 0.488421)
(9.74027 -0.0892049 -0.0524449)
(9.21972 -0.540279 1.3322)
(10.3894 -1.82388 2.49111)
(11.7895 -1.25589 2.19523)
(8.17351 -0.569135 -0.0605534)
(8.69094 -2.05622 1.78315)
(8.47832 0.541535 -0.112921)
(8.28167 0.969234 0.0394832)
(9.41009 -0.154841 0.0459466)
(12.7098 1.81257 0.7004)
(6.2956 -1.67297 0.222504)
(9.70585 -1.47546 -0.48073)
(8.96663 -2.10409 -1.10429)
(7.27973 1.52164 1.833)
(9.39611 -1.64011 0.631192)
(7.91734 0.833835 3.38674)
(8.21014 -2.35389 0.381431)
(8.67957 -1.47044 0.746872)
(11.9915 0.394112 1.58747)
(8.34588 -0.0893575 -0.00798585)
(9.27838 0.414481 -0.16599)
(8.83745 0.280162 -0.647073)
(8.81168 -0.558556 1.06478)
(7.85207 -0.85032 2.78176)
(8.98545 -0.817854 -0.33707)
(10.8113 0.623456 -0.278454)
(6.22535 -1.61309 1.73379)
(7.03151 -0.516471 1.86012)
(5.64314 -0.336705 1.57147)
(2.65014 -1.19992 -0.58293)
(6.94067 0.842129 -0.0382164)
(8.9818 -0.358549 -0.955713)
(8.0618 -1.02669 -0.273988)
(8.81228 -2.30296 0.0454237)
(9.32271 -0.148595 0.025696)
(9.06298 -0.337224 0.0162064)
(5.91687 -0.915624 1.77855)
(6.12601 -0.342758 0.176019)
(6.67447 1.24516 -0.018078)
(7.52567 -1.53952 0.486451)
(8.84494 -1.05259 -0.194314)
(9.18338 -1.84175 1.16928)
(7.83646 -0.830074 -0.435111)
(8.23514 -1.80606 0.12992)
(11.3312 -2.13024 1.35066)
(8.36166 1.94028 1.07433)
(7.69821 1.29728 -0.031043)
(8.86039 0.651429 0.506938)
(9.97771 -0.181522 0.00775795)
(9.49995 -0.174922 0.0202855)
(8.62941 -0.450625 -0.808458)
(8.2904 1.58823 0.986663)
(6.69775 1.48074 0.167775)
(8.80989 -0.049435 -0.118656)
(9.19342 -0.322299 0.0229316)
(5.72057 1.77491 0.215591)
(6.93346 -0.235009 -0.315609)
(7.67847 -0.251276 -0.965856)
(9.33928 2.85521 0.159957)
(8.82295 1.36305 -0.753192)
(5.77427 -1.04766 -4.13879)
(6.05567 3.96191 0.805927)
(7.06351 1.9927 -0.587047)
(9.5637 -0.30531 0.505113)
(8.63319 2.94806 0.645439)
(6.54105 -1.94596 1.35065)
(6.18002 0.418162 -1.01506)
(7.66664 -0.70966 0.25759)
(7.03256 1.80315 1.00905)
(10.2192 1.21266 0.234145)
(9.84757 -0.316739 -0.296623)
(10.7689 1.63154 1.328)
(3.82326 2.13584 -0.255882)
(9.08733 0.152319 -1.7604)
(3.95995 -0.108724 0.919108)
(10.5252 -0.517755 0.673109)
(8.19214 -0.33273 -0.0114351)
(7.99164 0.691266 0.212434)
(9.29627 0.25148 -1.91067)
(8.876 0.327668 -0.350534)
(8.64906 0.286523 -0.293066)
(6.90752 0.716354 0.217333)
(6.19069 0.742732 0.16641)
(9.59422 0.761816 0.670619)
(5.30135 0.826917 0.754888)
(7.30635 0.503025 -3.81549)
(7.75235 2.64554 -0.299123)
(7.88914 -0.0126259 -0.127701)
(8.45649 2.17283 0.934015)
(5.05444 -0.673537 0.876555)
(9.156 -1.92815 -0.845451)
(7.85734 0.733966 -0.0178743)
(6.78046 -0.334815 1.50898)
(9.927 -0.1698 0.513568)
(5.07646 -2.53048 -0.379755)
(9.55854 0.705464 0.930086)
(9.80418 1.57973 0.00641916)
(8.54848 0.488639 1.30059)
(4.93995 0.238025 0.556602)
(11.3237 -0.731473 0.219654)
(8.83352 -2.11573 -0.537206)
(6.81554 0.958392 0.618115)
(7.69727 -0.424299 0.643267)
(10.0113 -0.433936 0.369748)
(9.70419 1.11818 3.31207)
(8.80406 0.51634 0.766405)
(8.52973 0.135403 0.148061)
(4.10172 0.440251 -1.1437)
(5.3392 0.156964 0.00074658)
(8.19288 -2.57872 0.633425)
(7.85596 -0.328043 -0.56305)
(9.68167 -0.533856 1.08525)
(9.85197 1.0685 -1.59139)
(11.0522 -0.274886 1.77144)
(6.784 0.226928 -0.164523)
(6.76589 0.666275 -0.981961)
(10.1342 -0.144727 -0.189966)
(8.89828 -0.447686 0.694215)
(6.98534 -2.78681 -0.278708)
(8.16915 -0.215856 1.14951)