/*--------------------------------*- C++ -*----------------------------------*\
| =========                 |                                                 |
| \\      /  F ield         | OpenFOAM: The Open Source CFD Toolbox           |
|  \\    /   O peration     | Version:  2212                                  |
|   \\  /    A nd           | Website:  www.openfoam.com                      |
|    \\/     M anipulation  |                                                 |
\*---------------------------------------------------------------------------*/
FoamFile
{
    version     2.0;
    format      ascii;
    arch        "LSB;label=32;scalar=64";
    class       volScalarField;
    location    "10";
    object      epsilon;
}
// * * * * * * * * * * * * * * * * * * * * * * * * * * * * * * * * * * * * * //

dimensions      [0 2 -3 0 0 0 0];

internalField   nonuniform List<scalar> 
76965
(
503.351
1923.74
552.233
3184.95
1493.98
190.332
1184.99
182.579
1876.05
1208.97
447.963
478.184
1245.4
5106.4
5647.01
807.684
283.622
410.514
410.409
554.91
258.283
71.5031
233.45
224.455
1116.31
910.207
428.205
1234.84
1563.1
933.031
175.45
397.962
512.429
2409.63
857.298
457.021
492.893
111.237
379.677
313.312
222.07
255.124
1487.55
1937.72
327.049
89.0515
372.004
248.315
246.785
1577.74
831.667
1592.57
726.818
841.384
340
1658.78
1697.42
1293.95
949.794
804.212
125.609
128.088
424.559
88.5778
1295.16
46.3109
7721.88
307.532
717.407
1174.87
2637.14
220.38
866.863
2084.72
200.637
173.736
2232.66
412.048
482.04
43.4907
226.511
1038.62
3819.86
36.9539
69.9401
37.7448
54.6409
401.487
511.949
924.888
377.29
442.551
351.317
170.37
449.818
107.438
3773.85
47.187
50.4256
205.986
344.234
2934.87
1234.81
321.717
570.227
36.2268
38.8966
1288.33
5164.05
534.918
53.0689
1256.33
923.324
531.13
285.75
302.969
708.327
241.878
1283.93
1251.33
1375.02
42.0402
1457.25
1545.15
1036.19
1454.17
202.397
180.233
324.795
609.896
433.535
1122.84
1285.74
50.2255
203.653
43.2868
587.869
731.527
762.732
1022.95
167.585
1014.06
7710.18
149.378
374.849
354.482
373.211
325.947
549.764
1802.27
367.719
340.366
48.4974
432.95
394.234
171.416
341.944
464.069
402.859
2742.61
339.997
938.245
911.305
699.899
47.5169
284.198
659.018
4634.95
50.7132
173.083
283.749
237.701
192.585
78.0087
1918.07
844.792
1932.69
2045.51
47.3504
596.676
49.9913
2320.57
3530.04
3755.47
1843.99
2001.38
295.552
1520.91
894.998
397.058
293.383
658.744
261.126
2234.44
59.4542
286.426
5839.97
406.013
54.3627
62.3988
1144.13
1291.43
1634.52
59.5369
56.4281
656.42
59.1931
1205.54
1418.39
52.5231
3024.96
1338.57
3113.05
2095.24
3623.48
42.7772
179.045
1827.23
1530.1
1549.99
148.013
89.1924
1485.12
1403.7
291.212
172.776
400.433
946.912
52.8339
51.9584
435.154
318.692
496.604
61.7227
64.7703
358.792
375.739
49.4912
173.811
5558.94
600.457
342.647
1569.19
232.671
2095.66
717.159
2088.74
2060.32
2089.97
265.611
184.371
755.755
596.413
392.049
845.919
179.85
4938.5
457.232
1303.08
51.8408
212.209
362.99
5427.08
203.904
52.526
528.973
1853.78
92.6268
466.914
406.442
133.594
856.148
72.0051
1820.94
328.147
450.263
4112.25
1764.44
520.362
1478.21
1678.69
543.997
480.74
4315.78
5020.34
935.676
452.055
447.307
64.2113
372.822
151.53
214.505
129.354
195.179
387.717
395.912
215.573
161.26
127.99
344.994
336.318
573.26
400.495
362.597
361.279
233.936
4105.77
196.685
432.08
1652.24
137.187
333.689
9025.68
297.726
2124.95
2657.61
2429.35
1721.38
1797.02
1791.94
2099.08
1866.29
1616.69
1628.92
1864.72
312.746
513.744
72.8256
9535.81
485.285
349.793
105.649
167.974
121.755
231.28
201.931
53.7735
7968.25
405.354
372.015
193.447
135.899
531.298
286.117
1224.47
2240.57
1786.15
551.389
1094.06
169.174
216.928
25.0117
1030.15
403.601
434.246
187.424
3393.21
3606.4
46.6779
1034.32
769.595
49.0355
1400.07
1570.61
1817.34
349.088
48.7698
1247.11
1501.25
38.9387
402.036
5375.44
1295.92
2410.9
1460.13
1676.23
363.722
1739.78
1328.89
404.21
700.295
2038.21
424.38
997.309
162.839
272.164
3004.92
1986.88
61.4804
7416
3899.34
2914.82
1433.78
236.281
66.4977
492.289
637.244
114.428
214.225
4900.73
5036.98
1136.41
1350.9
1296.16
1227.46
173.665
148.814
7181.46
37.928
81.4989
834.819
940.619
49.1151
49.0438
45.0062
45.5999
257.348
462.201
3625.96
364.059
62.8987
2852.42
2293.32
50.6923
429.492
1049.33
101.607
1513.84
1386.6
7614.5
1583.45
1909.57
45.3799
1572.32
1399.69
98.3711
57.1489
527.118
699.971
60.1098
63.0243
1658.11
2249.35
2235.78
2167.67
374.974
765.172
144.097
2293.05
252.076
133.589
2671.11
278.014
50.3474
1177.69
359.591
2818.59
56.2483
866.106
815.428
806.189
649.76
508.129
467.139
435.191
440.808
205.277
201.051
1507.5
146.389
52.9401
45.8308
50.2763
53.0165
92.3285
324.605
805.932
272.335
51.2896
275.008
51.0279
1127.63
1004.65
46.9204
806.24
2832.53
555.56
996.514
2253.68
2302.98
72.0256
1666.87
1390.7
189.445
345.547
273.267
567.02
1854.85
57.7248
5023.09
207.465
69.4177
31.5232
52.4096
155.164
1229.83
812.407
2945.95
1903.07
1387.97
1266.15
1584.17
1095.34
49.8954
49.2837
54.0925
247.858
676.174
3803.9
48.5189
5583.28
630.87
61.6028
97.153
1835.02
580.643
49.3195
2434.32
282.457
2576.15
200.338
3987.87
740.539
84.6876
90.6812
585.812
55.0549
309.633
291.26
54.482
1257.68
57.6251
346.861
1005.7
480.993
630.73
2696.05
4731.9
401.351
553.216
448.036
144
282.38
47.3517
1318.11
57.2401
1546.23
285.305
47.3986
254.852
2157.98
1769.92
402.175
55.4186
546.81
1368.96
1224.87
2522.08
1840.92
220.738
39.8098
74.0494
75.7746
57.9249
47.6286
320.235
288.793
1742.64
206.738
65.4698
85.0946
229.775
292.964
272.35
187.553
148.601
44.4302
61.0507
2861.38
94.994
1367.66
262.25
1244.2
1859.68
3364.7
41.8779
202.335
2041.35
2454.57
47.875
368.203
370.254
190.863
225.091
366.971
784.615
513.323
469.959
191.306
357.492
47.5889
94.1071
197.645
365.329
476.986
205.143
320.966
172.464
53.0784
471.64
2437.16
703.734
182.668
137.674
330.582
103.994
79.3259
938.683
3378.16
2078.98
6118.62
509.542
2390.83
636.264
646.241
51.6276
57.2779
45.0618
47.7977
274.135
102.119
129.97
719.069
306.49
89.3816
53.8342
331.754
2391.98
3232.24
172.966
206.622
176.868
365.304
354.88
429.248
199.219
1115.22
1150.38
160.431
1471.26
49.5369
899.24
2323.74
3630.99
440.11
40.9645
3206.93
372.751
5187.32
6677.78
52.3186
2202.7
2437.83
358.765
4030.32
1866.4
4184.27
44.9209
2613.61
121.788
319.797
346.495
2095.59
49.8395
645.4
522.008
647.637
510.901
1113.66
1188.5
63.805
2127.71
5478.8
63.9944
1521.76
67.1007
51.0805
71.5663
3546.62
653.747
47.6525
389.783
797.718
2489.59
357.299
362.549
419.664
50.3302
46.7438
243.639
65.6441
930.288
60.7829
368.294
58.5561
112.987
92.8746
86.5406
1370.78
628.635
213.815
2365.19
746.991
3667.26
61.5579
2117.69
47.225
2540.98
1060.89
403.801
366.141
269.463
1266.25
283.072
878.306
1752.32
1356.67
124.069
155.341
7686.12
44.8079
365.895
9427.71
1587.56
1900.18
56.9023
390.69
314.186
2219.84
52.6139
994.688
2082
375.786
460.258
247.734
217.302
346.927
3639.35
125.884
44.9348
47.6535
365.251
58.1603
965.629
993.828
97.0501
102.337
1666.27
1128.83
368.689
3880.87
377.318
1429.35
966.409
879.168
50.7959
1631.36
2495.51
517.396
123.133
169.574
808.964
259.983
2321.82
5534.53
2174.79
56.087
1350.63
489.999
44.2431
332.178
306.722
3324.65
1208.8
71.4609
1495.39
1430.3
442.219
55.9211
343.273
485.045
3534.81
2907.79
119.55
1257.62
6889.37
5653.68
1416.66
2115.87
1294.99
1294.15
46.3966
75.0729
208.008
746.714
1693.76
2541
2917.08
358.459
288.838
300.993
385.395
270.13
825.839
427.366
714.175
403.413
225.687
3468.82
346.325
357.652
498.17
731.577
277.484
398.865
1404.68
458.472
527.777
449.521
306.517
335.983
109.582
107.107
2414.77
643.879
164.863
243.81
419.255
449.679
49.0764
375.972
55.5596
343.675
572.53
453.715
544.454
2263.81
102.816
4045.6
315.839
823.512
28.4014
288.049
119.977
980.95
2124.69
272.692
350.434
1130.95
274.994
531.697
798.564
1934.99
1622.54
502.485
981.502
4638.32
3542.91
952.324
878.217
2275.55
180.43
54.8005
151.661
442.754
247.746
54.7048
53.754
190.011
200.599
720.033
2130.66
121.323
96.2183
79.576
131.557
2301.66
2541.47
597.429
72.4073
43.3186
5181.97
317.739
1694.9
6195.56
5028.91
3212.72
6135.79
181.377
6459.88
5393.6
2540.97
2733.46
379.111
197.04
1719.98
6621.73
489.147
516.682
221.941
142.824
725.399
324.947
1620.13
95.298
1272.16
1397.86
289.122
54.75
282.19
4263.56
272.305
229.021
1872.99
240.852
212.022
50.0768
103.699
52.3141
291.026
46.9081
788.963
405.678
402.797
272.4
120.45
648.099
158.215
119.438
2210.63
48.082
297.222
1358.92
1488.69
4624.9
178.857
829.598
479.32
180.35
98.2283
87.967
789.816
704.73
1686
46.1278
47.8562
50.8007
1032.42
299.667
207.75
390.041
1340.92
1744.61
290.257
195.038
1673.52
3206.1
353.478
384.562
1745.08
42.5971
3932.58
437.87
45.5129
44.8891
102.611
3859.78
381.235
1142.61
1321.74
1519.72
583.005
2298.45
322.053
55.0434
5511.89
5504.16
1155.02
58.5682
248.128
3241.52
1020.39
46.6066
4639.07
3280.99
694.398
1368.67
785.485
375.842
303.831
166.488
643.331
4719.09
935.735
1111.39
54.226
49.4872
1056.69
250.619
53.7477
362.911
35.0925
494.576
403.706
816.58
1869.74
574.577
1209.72
1639.22
57.3245
2583.44
194.72
1270.57
1212.97
41.7175
389.329
425.557
281.468
1069.33
4311.75
2310.69
46.1019
51.1624
390.64
327.564
123.106
1525.44
2529.86
69.2742
229.985
52.4698
251.438
38.7305
5272.21
4483.25
1044.98
191.492
1290.26
305.52
439.257
51.7062
51.7138
576.726
262.261
992.541
856.162
71.151
242.455
261.554
412.756
412.449
945.546
660.076
272.907
5887.11
5522.52
2396.74
46.0471
48.4431
192.777
481.068
502.216
2534.49
791.936
868.519
2085.99
304.797
150.349
265.148
1444.08
596.692
4586.66
5993.63
4299.29
6623.76
332.938
74.5715
5426.33
6011.96
4438.95
53.6288
394.781
356.518
272.037
2169.34
1811.53
1667.82
1208.12
10382.9
1907
73.8349
3040.76
3388.51
1302.18
38.6986
346.354
420.987
315.378
5920.63
71.3415
1391.09
1622.13
43.8441
564.487
4586.67
2573.13
2699.61
429.504
6657.18
710.119
3008.25
189.411
387.711
356.203
225.333
51.9548
1491.37
2975.59
1334.84
46.9719
2854.29
430.359
112.153
1681.25
618.187
3298.5
1413.85
196.981
1650.62
986.487
207.001
429.728
163.453
227.346
116.343
316.155
752.833
187.864
508.089
155.341
5977.19
32.8341
471.522
805.909
1475.91
472.231
3694.41
515.449
1815.96
556.808
314.9
57.7239
51.8265
1419.76
1853.35
4325.98
99.4201
188.249
132.383
32.8662
56.2674
3516.21
3242.26
1850.48
645.309
324.919
5291.92
1180.45
48.2251
46.9
323.397
54.7387
326.722
1344.42
1833.53
48.5031
5298.1
3378.1
392.997
50.4926
1207.11
2202.74
16.2408
1285.74
2126.83
2124.89
560.018
295.367
214.699
4963
5572.72
526.326
880.779
413.541
135.207
49.5844
328.183
1715.62
2302.1
211.496
1119.44
47.439
781.414
58.2331
1642.22
44.5731
42.5208
346.983
2246.29
144.603
79.2116
104.582
63.0457
1393.29
494.622
52.7122
49.5646
1319.79
521.986
3204.22
2790.46
40.6436
5987.86
233.949
290.259
574.1
59.781
358.642
320.466
4411.72
287.256
313.723
1129.68
1951.06
1843.34
1869.29
1199.52
186.813
260.495
721.493
2897.17
42.4543
45.6987
49.6449
3263.84
672.166
74.0729
58.6205
55.6981
4166.39
238.32
3433.63
3909.52
3451.75
1596.42
1158.36
2547.89
1873.76
853.944
411.689
4610.86
6312.55
3004.74
3215.34
114.874
2120.78
227.577
447.758
7365.48
2168.82
4852.88
46.0856
45.1316
5856.28
2518.87
438.292
2121.88
406.107
686.735
1559.08
687.869
858.676
465.356
3819.31
737.382
45.9695
49.8722
1232.31
310.658
256.145
2880.09
1715.4
1009.97
5328.62
288.545
9271.81
2034.87
1511.38
217.392
4580.18
56.9707
400.769
149.262
351.652
557.648
723.837
300.986
1560.13
52.8308
155.734
425.964
1662.25
5119.52
276.951
1329.04
3953.91
214.326
1438.49
3834.32
592.617
1991.35
3000.05
2934.49
48.6914
57.7718
620.162
1781.53
5608.24
53.1676
354.475
1512.61
83.2222
3623.22
12193.8
1010.67
60.6727
2505.24
1044.5
93.1341
692.504
58.8258
708.248
51.3494
54.485
537.468
1707.22
440.746
1169.73
2498.9
1528.07
620.014
643.588
78.976
37.4959
1305.89
3544.1
162.234
77.4438
1704.31
389.54
2220.89
309.25
477.192
782.98
1119.75
106.701
292.735
414.739
379.791
51.2106
52.4167
229.867
324.934
80.0111
126.683
219.525
2437.92
1589.88
628.919
237.245
166.392
177.37
498.337
257.654
66.5318
3880.3
53.1984
790.758
75.623
201.436
1361.13
1239.6
1250.9
80.7032
151.904
918.507
487.513
149.401
2488.59
1544.77
285.418
225.986
266.901
1083.58
550.707
193.158
206.496
696.16
103.767
177.904
96.2891
1742.53
501.202
741.052
134.375
373.562
560.555
1333.54
44.0435
6670.59
643.432
96.5503
488.711
477.456
1188.31
346.303
117.319
60.3676
441.824
2707.54
324.25
96.4685
62.0544
313.15
69.2549
1195.87
880.754
652.609
2261.72
1214.92
162.605
174.116
73.5408
445.689
5003.32
85.9424
78.1555
215.753
1178.92
1196.41
415.451
52.1157
1271.98
2140.6
1259.65
46.3144
5069.43
6740.06
2182.79
2555.92
214.538
429.217
883.419
2204.28
6886.74
342.452
214.234
47.5675
58.0122
711.485
1037.81
5710.08
372.111
195.137
50.6881
453.716
1392.61
4836.96
251.627
1784.5
1353.36
220.518
100.196
722.733
61.7733
227.09
368.591
276.753
47.432
579.262
424.42
543.07
2663.06
53.2042
1452.15
3625.9
390.637
212.397
77.3249
59.8534
37.2237
1891.24
2965.44
115.769
91.078
246.837
1787.19
854.597
220.607
210.633
6023.36
372.041
343.354
540.789
630.28
1913.4
760.752
75.8776
44.3515
46.8946
353.956
275.516
317.561
841.974
1409.67
84.6438
939.858
775.135
400.197
1682.67
248.957
137.927
216.471
1736.9
314.383
165.639
195.208
409.873
6781.7
7564.39
1572.65
1193.64
1927.6
732.562
4299.72
697.256
317.458
192.7
42.0451
462.504
395.22
30.9642
597.444
1329.46
1260.88
1934.7
87.7291
34.3565
2575.5
116.143
376.004
339.847
1543.75
6418.61
7501.74
137.751
63.3268
661.467
847.174
138.059
2080.78
364.951
177.807
38.4308
423.153
176.16
120.118
251.139
420.804
374.177
794.396
303.666
1025.9
1466.58
46.9165
3837.79
271.226
283.791
1282.13
1794.89
7840.99
1118.87
76.7733
1024.68
1245.01
135.856
294.047
4561
309.354
118.235
55.1153
3625.53
5702.09
353.311
48.0871
8892.06
59.7297
48.7084
8142.08
48.0015
3839.51
51.0763
91.0926
55.506
173.301
2741.24
243.192
5365.52
895.832
62.3622
3687.11
221.632
280.114
259.024
228.067
137.023
120.588
136.542
1066.67
4298.97
439.56
53.1125
36.6023
421.085
4718.37
5647.35
49.9706
3154.24
67.4221
2239.45
7215.09
253.588
149.245
769.112
166.691
334.103
116.516
74.2545
77.9014
98.1036
321.914
434.737
7613.4
495.606
2293.15
197.545
320.886
277.491
1350.69
43.9432
135.374
1963.26
1808.59
6367.94
162.871
2270.24
322.883
615.37
359.48
395.964
1703.5
41.9358
1623.86
100.924
1292.01
384.419
4545.61
101.967
58.6635
7159.55
62.9465
634.748
519.581
541.396
401.665
300.84
265.094
204.156
177.278
1394.73
7561.52
8213.28
57.1887
138.526
1672.58
745.877
773.554
1499.49
305.559
67.8435
50.5679
6880.51
6795.24
3219.89
275.042
1901.67
5615.6
1820.15
2501.03
7301.74
236.812
3042.24
45.3342
390.17
530.53
5679.51
454.889
500.055
1002.78
631.384
356.29
367.454
302.085
172.697
290.619
661.897
118.209
622.073
135.533
339.59
347.145
129.248
2717.73
1954.41
2208.01
271.741
355.512
177.179
528.068
240.385
121.436
116.345
734.204
98.9581
87.582
938.67
5637.55
5333.84
805.02
3754.7
561.009
674.052
998.428
465.906
343.962
418.858
4894.31
3439.16
4534.71
3980.74
5788.58
712.288
960.326
5524.51
120.769
1068.47
943.486
887.12
546.712
5683.33
6886.25
318.253
353.874
640.581
4919.8
1194.31
13854.8
303.037
221.405
149.783
89.4728
281.585
347.822
57.5654
53.0221
169.245
262.438
311.569
212.846
134.672
581.416
379.07
345.494
802.977
1156.87
272.325
481.325
428.29
918.897
463.687
225.799
450.666
494.37
188.656
630.02
259.054
108.857
5680.9
58.2781
55.0763
1544.19
345.766
718.003
447.463
5944.45
49.6486
5692.19
129.368
119.718
3378.85
413.987
361.514
435.939
229.088
675.647
327.769
2692.5
4855.21
102.808
434.597
143.469
321.1
4946.86
48.9694
602.023
75.7244
453.742
4199.26
4212.66
1351.38
387.435
326.047
1717.11
371.401
1764.35
245.874
210.201
1291.05
167.972
2143.41
138.262
2412.33
294.239
134.501
5940.48
4979.32
1353.57
910.728
1286.75
1155.01
470.058
2213.13
556.854
53.013
143.132
190.399
432.157
2186.58
11046.3
10480.4
579.643
193.284
190.294
1475.48
618.137
203.242
341.921
271.266
133.645
166.569
3310.88
86.7679
182.867
991.593
482.103
421.755
535.362
826.57
9086.92
435.757
157.883
65.7571
411.827
80.7619
40.9068
507.026
114.012
109.45
111.737
384.593
5822.28
1599.6
1037.43
166.393
3363.59
281.973
280.799
316.908
679.157
98.1511
361.384
157.475
332.506
381.447
373.222
2750.26
59.4929
68.5869
788.791
126.293
768.671
783.088
13173
156.659
947.771
621.296
1957.29
2150.22
154.71
650.265
112.896
626.916
4139.44
4832.98
45.3512
439.429
279.284
286.263
191.133
351.212
5047.5
1270.09
1832.13
45.8227
5731.26
106.455
36.9016
451.408
398.075
1805.07
12687.7
1007.62
116.614
139.322
260.589
4777.98
501.691
452.759
340.62
106.914
7418.99
40.3758
133.297
557.097
355.593
1364.8
89.3944
438.699
1000.51
28346.3
569.032
359.934
273.599
1828.47
355.26
268.614
623.192
3700.67
745.377
619.037
74.8744
228.741
259.172
774.984
47.6254
112.934
3339.95
250.017
292.442
939.482
368.072
1906.47
726.903
2647.55
712.72
693.803
2238.61
973.943
612.925
450.534
440.923
1145.98
2576.38
1876.89
2220.15
1977.62
2068.26
1938.71
39.5813
44.326
2490.37
577.465
530.595
53.7671
2256.45
3494.94
2023.16
291.715
303.566
294.983
192.133
1777.28
1366.57
304.611
209.721
2107.06
94.0727
669.228
577.714
514.876
5780.11
48.963
50.4776
217.543
750.749
570.634
463.765
566.81
6845.63
7344.54
6846.13
6273.08
1318.36
1198.33
1097.67
712.307
2402.25
57.3251
6384.48
86006.9
8008.22
739.283
613.425
375.136
281.615
4188.27
4220.54
560.837
171.764
1384.56
92.551
560.322
6403.33
1309.89
7720.82
310.302
261.174
2328.5
571.409
389.989
424.961
5089.65
397.339
1243.84
743.574
726.825
182.801
2174.74
3810.01
1212.06
1501.94
1684.34
242.163
2162.55
2782.78
2136.3
1390.16
1179.28
7720.46
1552.11
5956.91
5139.26
5283.56
2123.78
455.974
458.446
318.116
343.518
615.836
2805.59
308.452
371.918
3506.86
285.874
267.125
1254.01
1595.1
515.396
452.495
98.3137
97.3922
125.72
2555.15
7124.29
374.915
1518.82
4096.1
1062.68
3434.29
49.8359
1637.72
1184.5
4324.17
6212.27
1882.25
564.317
729.887
447.116
1072.2
2282.72
190.342
262.56
753.169
1670.24
1548.41
163.367
161.585
3032.42
744.11
5434.81
3530.71
3029.39
126.548
110.333
334.922
850.297
1927.29
707.663
161.147
2037.67
1084.79
163.965
184.477
565.535
1603.31
858.072
919.438
1040.02
566.46
215.045
152.795
190.817
2102.03
655.413
142.037
651.889
828.163
847.475
487.891
490.152
549.845
728.589
1498.12
1894.2
106.752
1037.44
1546.33
574.034
1442.53
234.172
1014.36
283.757
1447.89
480.656
92.1158
528.805
88.7652
773.604
449.873
257.39
236.378
532.581
2894.31
2308.69
386.236
211.481
324.635
256.192
422.027
195.89
39.3824
98.6734
120.328
573.399
480.649
264.443
716.977
758.417
525.602
151.989
182.296
148.823
733.927
387.49
252.837
263.397
41.4697
220.916
214.418
75.2077
206.574
1050.01
777.564
210.222
42.8081
263.748
186.789
188.516
511.715
426.151
536.073
291.207
288.306
231.753
550.056
758.491
868.048
502.079
390.07
90.1645
93.0784
178.689
55.4117
684.874
11.9209
3401.74
223.586
309.618
579.153
1231.52
196.869
444.549
837.035
95.5134
111.189
774.276
283.578
302.044
16.1181
179.478
468.932
1850.72
37.101
29.1423
21.5093
20.3502
167.068
285.77
398.545
166.179
181.708
161.544
142.007
260.004
59.7532
1261.01
14.2564
17.3849
119.4
203.167
1387.65
513.5
180.52
306.378
24.4679
17.6303
578.116
1961.7
431.057
17.3639
762.312
421.422
239.697
131.063
186.339
476.039
340.862
628.402
683.302
820.426
6.94254
560.801
699
463.75
696.92
159.292
238.439
176.35
221.134
191.799
372.875
657.674
14.1422
160.098
15.8428
257.557
320.935
431.687
339.742
73.4473
444.624
3578.77
163.578
244.377
232.81
232.456
190.514
209.82
1249.98
189.994
170.627
8.12468
181.223
139.724
252.065
240.353
174.332
185.25
1363.29
158.861
430.68
356.481
200.444
13.0809
225.089
345.362
2499.76
9.04243
165.934
214.174
75.9691
75.3481
34.2744
659.054
444.192
924.079
580.044
11.9676
265.51
20.8619
951.198
1552.56
1417.58
1530.44
1250.77
101.105
698.159
311.017
210.643
182.243
222.508
173.877
1156.45
15.6535
139.641
2689.93
173.842
11.9779
14.3426
641.216
511.568
777.076
11.5511
21.8813
393.949
26.1207
455.82
329.139
11.845
1438.42
489.835
1293.46
838.01
2015.95
14.5973
165.12
692.172
640.346
605.546
61.4029
38.6207
459.502
410.834
331.805
94.695
217.941
384.744
13.2781
13.1254
254.622
217.968
245.742
34.4039
31.0112
124.407
163.044
11.3722
188.001
2728.01
204.056
169.479
606.917
113.114
984.244
401.799
938.918
988.103
999.804
115.679
80.3056
269.517
226.002
248.92
488.997
197.575
2270.78
241.601
255.591
12.3925
223.794
149.556
1943.91
181.983
11.307
209.566
1555.27
44.4199
177.445
248.511
34.7136
278.855
34.2805
579.813
198.005
453.039
2613.75
598.264
303.058
492.524
500.71
333.767
267.761
2039.34
2488.9
410.143
454.161
273.071
19.3428
227.494
100.685
120.192
168.245
177.73
222.91
245.198
167.331
133.588
95.5765
215.452
161.464
420.398
293.202
218.263
205.147
133.364
1944.51
244.169
261.281
693.432
136.771
120.281
3576.87
355.673
801.788
982.619
727.099
606.233
692.937
491.931
891.918
682.353
759.96
509.981
613.931
181.325
141.459
31.0125
3376.65
312.788
172.789
114.9
42.0011
26.839
138.264
110.188
9.78782
3283.44
190.722
206.447
157.443
92.3042
270.156
134.398
515.268
937.571
876.686
304.385
333.282
125.667
93.3572
111.454
517.842
296.41
311.305
64.6245
1642.84
850.69
12.9535
587.964
364.096
12.0895
421.388
727.709
718.25
207.595
21.7774
536.432
578.585
15.704
232.293
1886.94
865.996
1266.43
747.673
1146.33
270.898
705.067
664.474
218.922
399.568
1041.02
156.852
335.429
93.9622
89.0612
1300.49
1208.53
13.2206
2490.77
1399.51
1260.5
618.986
199.523
31.9174
320.438
335.004
63.4045
136.871
2943.6
2147.29
413.798
579.606
679.618
390.481
73.9917
67.3952
2970.33
5.02025
41.731
364.726
389.98
12.1641
13.9167
19.794
14.0428
81.7097
221.21
1694
200.793
37.55
1385.81
1326.29
9.30715
168.133
610.237
168.482
799.671
610.213
3501.75
538.63
594.285
12.8578
479.879
479.959
119.262
19.4041
278.906
340.207
18.6493
23.3435
813.501
857.33
685.285
964.723
207.373
419.023
60.2307
1505.62
90.5823
41.4673
1098.49
337.97
12.4774
586.794
251.937
1780.71
11.9943
522.599
588.352
238.125
354.291
397.938
279.926
186.166
197.977
79.2169
66.466
537.844
195.526
13.1137
9.33947
12.3494
12.299
32.6125
187.244
480.18
232.715
11.3591
227.006
13.8572
394.461
465.163
12.2782
429.185
1029.34
342.451
327.461
1203.41
1369.73
45.1977
707.642
721.441
176.138
203.817
129.647
415.509
987.765
19.1017
2018.05
220.563
24.5313
68.1186
12.0926
151.308
505.773
422.147
1378.11
946.21
807.555
552.148
608.554
256.085
12.6174
12.5108
11.5839
204.67
374.056
2163.48
13.3573
1985.73
248.175
16.8312
38.8589
1172.99
286.204
12.3348
1345.49
104.525
1455.21
75.9761
2093.16
271.696
43.5597
29.0409
354.808
21.5039
242.785
199.794
12.0457
710.068
20.347
225.526
442.122
281.664
385.22
1472.17
1859.63
258.259
221.449
279.725
102.397
111.067
14.2199
601.167
23.2872
583.569
215.249
10.3259
68.1276
1797.99
1030.55
205.195
11.08
348.058
519.494
541.462
1247.28
721.26
131.021
15.541
27.5618
27.2202
13.5426
12.563
142.231
119.557
676.782
69.4925
20.1312
80.9383
188.414
175.558
140.557
253.349
89.8171
17.8649
25.1089
1604.39
43.2652
617.406
198.755
647.21
812.395
1496.55
10.189
205.406
768.438
733.984
22.1035
194.926
219.833
104.54
140.959
210.844
513.248
258.721
213.259
222.897
236.908
16.6683
84.4239
90.5857
218.524
164.165
99.4563
283.622
78.3434
19.7508
294.044
1027.18
316.491
138.958
35.0729
207.594
53.1059
50.1529
414.041
2122.49
1047.38
3019.61
274.314
1227.15
387.43
492.917
9.49028
13.6895
14.6121
11.9843
95.0992
50.3419
63.5494
454.635
121.569
70.605
12.9129
107.202
1251.79
881.582
150.678
149.87
144.567
227.496
231.906
177.811
130.84
456.564
576.402
99.5257
498.101
16.8954
458.762
1107.21
1954.38
200.101
18.3454
1900.44
260.679
2532.29
3199.84
9.75032
2221.57
2351.1
222.647
1686.22
728.98
2014.91
16.3264
1590.28
61.3651
116.915
262.233
1039.77
10.0417
331.25
315.245
387.796
404.518
499.447
544.847
15.4734
918.229
2308.98
19.9395
777.042
16.5485
11.2861
18.6068
1577
325.961
15.4061
262.969
436.187
1060.7
185.405
260.947
301.836
11.0205
12.7177
192.231
19.4109
442.857
28.6181
302.848
20.2281
36.0713
35.1428
25.7431
509.473
351.69
98.1074
1166.46
412.855
1386.25
32.2093
1159.13
14.0574
933.322
360.003
160.436
148.863
104.141
539.606
176.616
320.562
735.139
418.806
41.5185
109.101
2998.12
20.6384
267.524
4070.51
976.89
883.248
11.4029
245.46
233.716
1110.51
9.83744
495.046
1082.07
290.976
342.381
165.832
223.397
192.079
1882.4
71.4053
12.0092
25.6587
151.314
12.5278
362.865
434.66
54.2794
77.4948
1003.96
509.941
261.104
1438.1
272.257
814.795
521.135
535.484
11.9386
785.039
1236.28
212.279
73.699
82.4644
280.765
146.086
1121.33
2600.74
1061.79
16.3641
532.37
259.441
18.4666
242.509
272.654
1553.12
786.766
33.5368
878.442
666.532
381.434
10.9657
210.137
177.503
1178.08
763.245
169.971
593.93
3111.81
2606.41
573.8
980.476
694.059
718.468
21.563
21.8162
200.335
418.729
680.228
1259.73
1161.29
278.428
246.485
187.741
239.049
222.877
260.421
258.353
460.641
182.303
83.4632
1296.99
196.432
207.558
255.278
371.065
160.962
219.838
621.273
231.516
361.12
297.873
131.613
203.614
49.8578
40.9823
1365.9
411.767
120.864
198.84
283.058
294.98
14.409
246.45
12.3359
218.107
251.785
328.249
443.946
1611.67
71.2754
2433.06
202.845
528.15
40.5736
155.662
86.825
448.114
1777.73
158.807
271.163
637.538
121.897
276.625
542.96
1214.62
686.058
421.856
662.65
2055.87
1340.69
302.561
347.407
1033.27
76.5979
29.6165
50.1954
307.448
105.823
23.982
17.0455
151
121.969
330.73
1264.93
42.1319
71.3517
29.2125
149.374
916.882
984.897
226.293
31.3692
20.1356
2200.2
204.161
982.928
2679.5
2104.85
1401.03
2856.73
175.813
3569.29
2158.29
1056.57
979.285
271.962
49.2171
746.848
2139.29
174.378
398.1
214.557
103.305
408.849
182.442
452.818
38.1042
617.268
660.106
177.273
12.9938
175.105
2149.22
96.9714
130.583
1552.35
281.659
68.0024
13.2395
65.4669
11.014
246.424
19.3799
373.546
212.251
203.021
465.067
72.0701
402.748
106.472
80.5553
1034.94
15.3113
214.263
778.26
758.762
2212.9
72.8161
327.026
182.537
97.8007
29.845
38.3855
435.246
377.305
1066.16
12.2442
13.4689
67.2299
344.153
171.718
134.149
266.818
485.844
795.224
142.045
160.968
637.996
1432.75
199.947
187.757
655.073
15.0382
1901.87
209.693
14.5084
14.7493
42.8344
2189.82
251.531
423.243
771.237
837.132
426.057
1431.06
161.122
11.5675
2892.37
2453.98
586.282
14.4921
118.099
1833.92
504.118
13.0429
2056.36
1695.96
402.31
655.694
499.754
364.554
293.813
55.885
323.5
3202.32
281.32
357.059
141.533
12.3562
556.681
121.769
29.0641
212.172
10.0801
216.48
181.062
576.565
948.796
221.33
681.464
879.554
18.711
930.995
93.783
567.542
626.628
21.9318
303.326
182.75
137.631
371.718
1701.2
936.236
14.8012
12.4989
264.219
245.094
27.8152
486.779
1170.8
18.0629
165.483
11.9935
173.696
12.142
1605.01
2706.34
655.703
153.208
513.003
269.923
256.28
12.2638
13.7557
324.074
131.39
262.575
345.314
47.6093
197.992
172.891
284.867
285.304
378.856
458.17
180.994
3450.99
2733
862.45
13.2814
13.5104
109.713
206.202
200.486
1016.66
406.021
570.179
1060.76
242.281
141.912
200.227
600.98
325.47
1872.53
2365.6
2134.93
2951.5
211.381
38.8045
3241.58
3164.89
1854.01
10.68
181.685
327.968
202.366
884.982
663.293
565.908
394.111
3973.3
901.983
50.7172
1581.27
1627.99
578.385
22.3623
143.616
281.38
158.881
3008.94
21.6139
645.555
749.399
16.3685
254.285
2078.86
977.474
810.043
163.751
3147.4
275.677
1626.89
277.042
340.972
148.911
185.233
11.9354
1405.13
1494.79
463.496
14.452
1343.42
195.717
38.4126
792.79
377.387
1390.33
1459.71
54.0698
959.007
600.394
79.0385
230.623
141.595
191.126
83.7544
242.861
244.624
150.762
324.722
104.912
3484.69
15.1653
232.924
337.324
831.124
291.693
2135.94
250.588
396.925
227.594
126.341
14.0913
9.93634
380.478
1097.31
2070.53
37.6875
66.9022
67.8355
76.2763
19.112
924.471
1518.65
950.46
297.922
166.98
2902.46
827.859
12.1384
11.5888
361.957
17.9991
177.466
541.011
1122.5
17.9226
2777.7
1831.57
313.765
10.9071
376.635
996.976
303.143
480.086
956.458
868.015
301.019
111.816
50.9555
2239.78
1995.69
357.887
346.544
245.734
45.14
14.4253
227.374
915.674
1049.73
228.123
582.801
16.8946
190.284
12.7995
888.868
14.9661
20.7824
244.67
1310.67
90.9326
33.9072
62.0893
138.418
564.357
244.507
10.882
10.2005
545.482
272.962
1989.25
1674.65
19.3862
1834.56
87.1599
129.561
335.828
15.9116
214.21
167.325
2302.73
171.098
276.722
382.081
1137.69
1433.66
1248.29
613.186
131.506
128.193
359.278
1890.98
20.7991
20.6185
16.7256
1229.99
377.663
25.8955
9.78334
10.9516
2089.54
90.5901
1415.74
2454.25
1501.2
659.919
668.069
1169.37
1054.74
277.674
308.543
2590.21
3267.22
1135.05
962.96
37.5208
1660.89
145.726
283.717
2481.07
1456.69
1925.55
15.3428
11.1238
2236.64
875.083
387.157
1359.09
383.466
548.446
613.266
356.847
331.393
218.824
1974.67
278.441
18.4066
12.9375
611.684
162.099
196.84
1274.71
668.45
368.913
1911.1
93.9476
3519.8
1081.79
852.47
329.536
2556.12
10.6665
232.179
109.69
242.237
419.461
253.496
150.826
593.191
21.4726
114.727
295.331
426.492
2353.14
153.831
732.282
1888.32
90.0256
606.169
2293.6
337.29
869.379
1369.15
1664.78
12.617
21.5283
618.296
792.411
2217.61
21.1553
199.848
661.532
23.684
1820.35
4782.98
575.898
10.2458
1097.89
294.245
64.8883
225.241
33.2433
409.232
12.9433
11.7367
255.156
851.795
429.74
445.321
1028
907.087
249.926
311.558
63.1681
10.4146
843.883
1359.27
192.397
25.9107
984.134
277.634
1292.88
119.715
205.65
445.769
637.961
156.092
177.882
154.683
191.134
14.8695
12.9465
112.143
212.652
36.954
86.8974
106.774
1102.64
653.901
378.155
74.1657
72.754
61.7495
433.147
217.876
18.2041
1544.94
88.2638
446.776
29.0331
148.205
526.346
555.994
557.659
43.8278
110.804
530.104
332.527
49.3891
1224.24
876.26
199.488
119.64
104.234
618.379
311.003
175.479
189.122
313.172
63.1803
48.6177
61.7284
913.922
293.951
266.22
120.421
191.115
338.092
556.943
20.9391
2916.5
231.4
31.9065
306.914
325.546
688.657
246.721
60.6602
28.7577
355.091
1545.37
92.1591
22.2623
20.9189
145.618
24.0507
807.491
504.919
405.589
1083.58
547.524
212.732
210.188
157.038
258.598
2051.62
25.9254
25.0612
129.152
816.111
484.098
371.625
22.0127
560.453
1135.44
496.673
15.8811
2238.76
2832.75
1279.11
872.26
183.695
389.015
395.954
860.075
3252.55
229.797
103.319
13.6916
22.6917
393.651
572.773
2686.95