/*--------------------------------*- C++ -*----------------------------------*\
| =========                 |                                                 |
| \\      /  F ield         | OpenFOAM: The Open Source CFD Toolbox           |
|  \\    /   O peration     | Version:  2212                                  |
|   \\  /    A nd           | Website:  www.openfoam.com                      |
|    \\/     M anipulation  |                                                 |
\*---------------------------------------------------------------------------*/
FoamFile
{
    version     2.0;
    format      ascii;
    arch        "LSB;label=32;scalar=64";
    class       volScalarField;
    location    "10";
    object      k;
}
// * * * * * * * * * * * * * * * * * * * * * * * * * * * * * * * * * * * * * //

dimensions      [0 2 -2 0 0 0 0];

internalField   nonuniform List<scalar> 
76965
(
2.84636
5.54738
2.77163
6.3547
4.88329
1.72622
4.29751
1.66461
4.53242
4.49595
2.40924
2.42557
4.27676
8.9965
9.599
3.86892
1.89596
3.48597
2.85158
2.70963
2.17462
0.77908
1.35085
1.36385
3.85972
3.58918
2.43759
3.68048
4.26288
3.95566
1.64299
2.60409
3.13632
6.30804
3.51187
2.58014
2.63855
1.11685
2.15893
2.51586
1.38781
2.06636
4.53446
5.23301
2.57265
1.1043
2.5253
1.91976
2.02403
4.67106
3.55615
4.62107
3.43899
3.19427
2.34889
4.65146
5.01723
4.19673
3.91491
3.62941
1.24475
1.36015
2.789
1.03079
3.08464
0.679605
10.6731
2.41047
2.81501
4.68311
5.95466
1.50782
3.53181
5.75718
1.86214
1.67247
5.53308
2.64583
3.21748
0.671648
2.03538
4.21944
7.30437
0.666776
0.834416
0.623303
0.801511
2.62305
2.93048
4.04584
1.69817
2.69113
2.3827
1.66009
2.96799
0.925443
6.50644
0.696107
0.74143
1.61075
2.57872
6.12199
4.49493
2.23476
3.03451
0.654562
0.665744
4.76357
8.43783
2.87038
0.787914
4.20552
3.43467
2.80434
1.50695
1.39457
3.07765
1.56468
4.59507
4.56475
5.0815
0.670821
4.30708
5.98872
3.69084
4.32999
1.7957
1.527
2.17886
3.09575
2.66046
4.30779
3.39193
0.73978
1.78581
0.682397
2.77307
2.88601
3.01849
3.80945
1.48819
3.78284
10.6016
1.07816
2.39146
2.40459
2.48314
2.41259
2.61097
4.37669
2.02363
2.41259
0.708936
2.26796
2.15358
2.4262
2.30998
2.87892
1.9968
6.21403
2.18191
3.76936
3.56467
3.15541
0.723593
1.94913
3.69411
8.75826
0.747736
1.66232
1.87882
1.8426
1.59416
0.887328
4.60378
3.24601
4.7823
5.10707
0.684011
2.93229
0.789561
6.40778
6.74013
6.76277
4.82935
5.53781
2.45876
4.06192
3.31612
2.26289
1.81756
3.29324
1.63994
5.09325
0.801175
2.03594
9.95304
2.56619
0.75519
0.814567
3.9095
4.98064
4.08417
0.823903
0.842561
3.11156
0.776009
4.39619
4.70809
0.704122
6.73558
4.23658
6.98541
5.31309
6.48103
0.646463
1.46033
5.14618
4.62669
4.31992
1.26326
0.900231
4.35997
4.23517
2.24579
1.15931
2.70131
4.06694
0.733896
0.734155
2.05423
2.20436
2.4426
0.809808
0.834304
1.94456
2.00289
0.716194
1.61538
9.67315
3.46992
2.64331
4.52639
1.76858
4.90543
3.11211
4.99487
5.7045
5.77546
2.35229
1.91751
3.32129
3.17868
2.07142
3.66662
1.43198
8.22693
2.75727
3.99373
0.718106
1.73204
2.23338
8.95432
1.8533
0.745978
3.31538
4.56588
1.11348
2.66684
2.11178
1.27816
3.73844
0.863354
5.03031
2.43108
3.44067
9.17291
4.82768
2.74108
4.23981
4.40667
2.52252
2.28783
7.80425
8.11143
3.60734
4.14457
2.93047
0.886695
2.68013
1.46328
1.88164
1.33089
1.80757
2.64688
2.78652
1.82831
1.67534
1.11828
2.50031
1.96891
3.94571
2.41884
2.55276
2.70955
1.79504
6.78089
1.54671
3.09054
5.26526
1.27579
1.92008
11.9377
2.12544
5.37422
6.19416
5.9944
4.81623
4.37617
4.91106
5.90829
4.40036
4.7709
4.63044
4.94101
2.41969
2.45286
0.914675
12.664
2.71273
2.5196
1.08901
1.41939
1.18195
1.57207
1.5072
0.739624
11.8379
2.60472
2.53209
1.8776
1.49035
3.12045
1.97427
4.59573
6.44222
5.52813
3.19387
3.71856
1.54045
1.50458
0.587606
3.63345
2.97905
3.04589
1.50681
7.05498
7.94504
0.727344
3.64754
3.78068
0.714758
4.25262
4.41345
4.98907
2.0048
0.729643
4.31893
4.67625
0.66666
2.42259
9.18015
4.56801
6.45385
4.97168
5.2687
3.11168
5.36396
4.17223
2.64196
4.08515
6.12965
2.36028
3.61435
1.32038
1.58195
5.94962
5.4479
0.844448
11.4989
8.12678
6.4468
4.84475
1.42434
0.876045
2.40941
3.38582
1.21386
1.43485
8.31338
9.02569
3.93802
4.78563
4.6992
4.1514
1.49317
1.74897
11.0739
0.650263
1.24437
3.54552
3.93302
0.722997
0.725997
0.70807
0.686657
2.00748
2.70963
6.22526
2.38869
0.810726
6.42346
5.5753
0.740402
2.83342
3.60358
1.35755
4.69774
4.55357
10.3506
4.66904
4.98008
0.649698
4.56982
4.29086
0.796053
0.856724
2.92086
3.15993
0.818714
0.87929
4.72403
5.89801
6.51911
6.11717
2.47835
3.26274
1.29452
4.92512
1.42028
1.20977
6.55234
2.09216
0.72614
4.10018
2.33343
7.01378
0.770711
3.22384
3.27955
3.07268
3.75149
2.67394
2.38582
2.7237
2.801
1.46807
1.50122
4.57864
0.959685
0.766309
0.711206
0.709822
0.746422
1.06204
2.41183
3.64178
2.18814
0.761262
2.18018
0.733292
3.90747
3.86572
0.681199
3.55378
6.06762
3.24258
3.41243
5.26755
5.81199
0.847324
5.02702
4.43306
1.75052
2.44007
1.88893
2.95435
4.75074
0.85278
8.7671
1.17522
0.951867
0.575521
0.751319
1.43838
3.79039
3.43276
6.72673
5.54957
4.44253
4.93975
4.74244
3.61664
0.722292
0.728201
0.769469
2.06103
3.45174
6.63527
0.719849
9.51276
3.69421
0.86626
0.988219
4.66317
2.38937
0.716977
6.33253
2.4584
5.76197
1.59835
7.435
3.94558
0.981689
1.16879
2.37812
0.745831
2.3043
2.04219
0.777714
4.48189
0.820701
2.16871
4.11429
2.2148
3.79504
5.68112
8.50191
2.57052
3.27146
3.17103
1.51266
2.46825
0.703011
4.39597
0.893567
4.82966
2.27535
0.730037
1.58874
5.13736
4.70214
2.91867
0.789325
3.45184
4.42352
4.22133
5.76392
4.83031
2.09815
0.597201
0.958994
0.947712
0.769358
0.746746
2.5834
1.96715
4.64694
1.92519
0.906423
1.02018
1.70155
2.05632
1.97644
1.91038
1.21723
0.763418
0.897338
6.3873
1.2247
4.77983
1.38513
4.24709
4.5604
7.20535
0.698377
1.63545
5.01688
5.92018
0.716076
2.14174
2.93511
1.91389
1.47401
2.81133
3.22681
3.45935
2.08042
1.51985
1.86444
0.71779
1.10522
1.78205
2.56612
2.70697
1.48574
2.24241
1.68521
0.749189
2.87284
7.26117
2.49398
1.41105
1.24104
2.21149
0.895957
0.914902
3.41403
7.30853
4.94423
10.0102
2.68521
6.32778
2.92618
2.67687
0.742034
0.81827
0.661728
0.713605
1.74919
1.09876
1.2613
4.13278
1.82656
0.941334
0.77479
1.82032
5.62042
6.77257
1.78037
1.89905
1.82286
2.47641
2.38091
2.99413
1.63966
3.78125
3.7434
1.3979
4.44354
0.744524
3.4315
5.76584
6.85161
2.86641
0.74864
8.26189
1.30715
9.03709
11.3101
0.733862
4.79532
5.91677
2.77817
7.32393
4.86318
7.68182
0.755924
6.59501
1.11574
2.58027
2.32504
5.4358
0.739311
3.54496
2.98296
3.13903
3.8052
4.29889
4.48378
0.862738
5.81611
9.36947
1.01303
4.08006
0.895092
0.71785
0.951591
7.26822
3.98987
0.711189
2.56852
3.28117
5.48581
2.78577
2.40004
2.09097
0.731135
0.7062
2.03923
0.983663
4.35644
0.917114
2.2742
0.862572
1.20531
1.10999
1.1543
4.66616
3.41625
1.40685
5.4871
3.01286
7.58345
0.820838
5.92382
0.718203
6.2656
3.78781
2.78154
2.61526
1.59375
4.68484
1.95598
4.01523
4.66102
4.71716
1.16597
1.13502
12.1332
0.715261
2.60723
12.1065
4.83332
5.38307
0.780721
3.00424
2.20867
5.73983
0.738719
3.49958
5.73725
2.61728
2.84182
1.4899
2.286
1.97021
6.63905
1.24702
0.70513
0.668933
2.17004
0.79736
3.42951
3.49991
1.18562
1.08593
4.33615
4.16255
2.26213
7.17827
2.7027
5.06507
3.90821
3.41813
0.753107
4.93824
6.1486
2.92587
1.26607
1.52314
3.07613
1.59606
5.43772
9.02292
6.36318
0.760781
4.12594
2.14137
0.671494
2.34753
2.28144
6.31923
4.30065
0.961683
4.68195
4.94484
2.50792
0.806142
2.14609
3.01424
7.64301
5.91501
1.42502
3.65625
10.5127
10.1224
4.58062
6.17076
4.12506
4.02174
0.792186
0.968511
1.70465
3.75323
4.44721
5.51846
6.36728
2.35485
2.14336
2.42602
2.7857
2.09853
3.09488
2.87881
3.02025
2.33852
1.61472
6.4014
1.88665
2.60191
3.08317
2.51662
1.98271
2.35821
4.44948
1.94994
2.35526
2.36577
1.99074
2.34158
1.06261
1.07809
5.65317
4.54908
1.54868
2.20658
3.12701
3.1887
0.777475
1.86552
0.783788
2.34173
3.29703
2.77841
1.95852
5.52883
1.08423
7.85226
1.78727
3.04971
0.479666
1.51432
1.36986
3.71736
5.48312
1.8114
2.35254
3.80498
1.99727
2.64833
3.47759
5.26783
4.87399
3.09147
3.44139
8.82687
6.56093
3.414
3.33776
5.18979
1.35163
0.703485
1.58237
2.26496
1.63933
0.671465
0.635163
1.77628
1.79005
3.98816
4.96035
1.14414
0.937022
0.947932
1.31009
5.21249
5.56846
3.44962
0.883715
0.682851
10.6988
2.14172
4.88551
9.78382
8.42364
6.30379
9.4908
1.46988
10.1949
8.8257
5.3364
5.74754
2.59233
1.52284
4.31969
10.682
2.29089
2.14086
2.24741
1.33867
2.91988
2.07885
4.90369
1.2439
4.27949
4.4627
1.82029
0.792345
2.23727
8.50856
1.9851
1.81575
4.64217
2.09033
1.45153
0.722033
1.16229
0.708276
2.01612
0.714289
3.72547
2.373
1.82127
1.47339
1.10725
2.52841
1.35503
1.2018
5.02421
0.710661
2.07433
4.4701
4.91866
8.06834
1.49055
3.00322
2.82626
1.38813
1.03214
1.0961
3.1154
3.00109
4.98996
0.682929
0.701063
0.728553
3.49301
1.80004
1.47462
1.5144
3.84357
5.21552
1.60128
1.34622
4.93486
6.85662
2.12383
2.47763
5.30353
0.693238
7.89452
2.87473
0.683437
0.695827
1.06419
7.87942
2.88417
3.57664
4.11655
4.96411
3.24485
5.31948
2.24593
0.775198
9.28292
9.50654
4.41624
0.844677
1.91022
5.67005
3.8555
0.708616
8.17995
6.74982
3.15651
4.41118
2.74732
1.90611
2.2256
1.6549
3.51625
7.58913
3.35563
3.66506
0.937464
0.726142
3.65527
1.86574
0.697561
1.95426
0.60567
2.9309
2.88515
3.49335
5.03318
2.94217
4.09807
5.27445
0.799132
6.38947
1.48305
4.62045
4.30505
0.679324
2.67617
1.94149
1.65784
3.70092
8.18499
6.21929
0.662744
0.747844
2.74676
2.08936
1.16083
4.61832
6.77982
0.868311
1.84739
0.753086
1.94849
0.640056
8.94155
8.7092
3.73827
1.86262
4.49713
1.83891
2.42728
0.71405
0.719753
2.39535
1.92839
3.42705
3.16692
0.877201
2.11301
1.44718
2.80003
2.81408
4.54217
3.90654
1.85969
9.43846
8.76734
6.17934
0.678139
0.691272
1.60285
2.34529
2.70382
5.20541
3.39013
3.45939
5.49229
1.87815
1.50209
2.18304
4.26436
3.48501
8.8245
9.56916
8.24178
10.0955
2.24985
0.801928
8.06981
8.66605
7.57117
0.774645
2.28101
1.74262
1.44177
5.79499
5.10574
4.17567
3.58848
10.9696
4.75489
0.884473
7.18726
7.8296
4.19951
0.671314
1.8731
2.76241
2.6099
9.32174
0.89874
4.53615
4.84736
0.679506
3.06332
8.49807
5.48525
5.73936
2.70664
10.4868
3.79582
6.64403
1.13526
1.49329
2.38268
1.50081
0.777379
4.66652
6.30492
4.18848
0.656413
7.32418
2.91811
1.32648
5.02578
2.46071
6.73459
4.28297
1.36305
3.84697
4.1106
1.55337
2.31833
1.59492
1.90843
1.14818
2.17227
2.90152
1.83874
3.57369
1.3838
8.4356
0.607
2.59207
3.75464
4.94605
3.08464
6.96146
2.38848
4.89994
2.44472
2.12465
0.797835
0.715125
4.26352
5.00586
7.29773
1.11442
1.816
1.21707
0.790607
0.87867
6.62986
5.95138
5.09035
3.02597
1.74046
9.18134
4.22358
0.68778
0.684027
2.27081
0.749302
1.498
4.39544
4.35158
0.628355
9.84171
7.91519
2.45303
0.729704
4.5675
5.39136
0.898221
4.24635
5.29205
5.45959
2.95137
1.62212
1.48141
8.68406
9.56505
3.22228
4.21003
2.26115
1.30021
0.725478
2.48494
5.16691
6.10942
2.2287
3.4771
0.705108
2.93341
0.824106
4.82902
0.669024
0.682228
2.52937
5.33123
1.49495
0.916225
1.08732
0.986914
4.4223
2.60531
0.747579
0.718387
4.25646
3.05966
7.54534
7.03637
0.569113
9.7788
1.75747
1.88186
2.29034
0.884453
2.66981
2.27216
9.37184
2.42095
2.46948
3.94092
5.09296
5.2131
4.93432
3.96693
1.53743
1.84334
3.78051
7.30291
0.680336
0.716494
0.746759
6.61952
2.62379
0.92899
0.783661
0.809195
7.77546
1.57817
8.33517
6.66844
6.73282
5.20923
3.38008
5.84739
4.94732
3.18675
2.88568
8.47441
10.5549
6.15529
6.51691
1.10411
5.46439
1.61388
2.70576
10.9661
4.77364
7.87878
0.694895
0.655775
9.36978
5.4591
3.27076
4.96791
3.38693
4.28749
6.43099
3.28104
3.75328
2.62579
7.07564
2.41441
0.70955
0.740717
4.06145
2.28636
2.51192
6.61235
4.20873
3.42651
8.91043
1.8575
10.7402
5.42881
4.23292
1.62236
8.3832
0.797581
2.97094
1.23467
2.2202
3.96999
3.17953
1.92086
5.70446
0.773432
1.50205
2.8201
4.6487
9.36349
1.82203
4.68217
7.28248
1.43576
4.09425
7.73172
3.12898
5.17197
6.54477
6.40309
0.716318
0.851863
4.70632
5.311
8.94695
0.786664
2.90991
5.03814
1.12884
6.95126
10.8896
3.80866
0.788265
5.18998
3.4052
1.36504
3.72291
0.904878
3.82425
0.733668
0.750394
3.05437
5.20122
2.77136
4.60517
6.24169
4.32036
2.41596
3.58885
1.13066
0.657184
4.04982
7.57259
1.80862
1.01246
5.42133
2.53653
4.98979
2.46508
2.77992
3.32643
4.40624
1.09141
1.53157
2.54166
1.75617
0.736041
0.725619
1.73055
2.19786
1.19245
1.23407
1.73865
5.428
4.32882
3.20173
1.90241
1.56736
1.36851
3.69959
2.03251
0.786742
6.96509
0.867538
4.3702
0.923833
1.54439
3.87668
4.71354
4.58293
0.956198
0.989625
3.75215
2.46909
1.32703
5.56743
4.29776
1.86369
1.56229
1.81586
3.98512
3.05588
1.86775
1.74935
3.42766
1.0385
1.38513
0.98949
5.08276
2.55355
3.77935
1.14573
2.45977
3.5672
4.39626
0.712766
10.6073
2.92333
1.13016
2.97884
3.16954
3.9255
2.44477
1.24174
0.817569
2.7292
6.17143
1.95529
1.17978
0.995698
2.53041
0.915422
3.51818
3.95233
3.36251
5.74232
4.15709
1.75649
1.89002
0.829763
2.46144
8.80127
1.00966
0.9829
2.15341
4.36695
4.63336
2.95754
0.756166
5.79401
5.98067
4.47031
0.716704
8.27492
9.98549
5.69638
6.18808
1.63475
2.4302
3.50307
5.53159
10.5473
2.40626
1.85673
0.696363
0.812446
2.7803
4.16813
9.60244
2.49905
1.34409
0.766863
2.58741
4.39602
8.6946
2.09544
4.48244
4.44097
1.79841
1.10043
2.76532
0.824101
1.20392
2.07628
1.72469
0.690449
1.85046
2.30842
3.18654
5.87284
0.764106
4.28605
6.97615
2.18408
1.43614
0.976432
0.783236
0.647925
5.31836
7.22848
1.31989
1.02931
1.50134
4.79502
3.53149
1.70642
1.52016
9.56097
2.57985
2.57525
3.03024
3.65947
5.38009
3.6034
1.00521
0.715435
0.728986
2.75911
2.11473
2.86126
3.28676
4.23205
1.11312
3.30509
3.42342
2.83303
4.62282
2.51503
1.506
1.84922
5.11682
1.96454
1.37207
1.67506
2.48897
9.84831
10.8655
4.32406
4.10273
5.27404
3.02829
7.30363
3.17291
2.73713
1.54054
0.622735
2.83994
2.56871
0.563977
3.47019
3.94008
3.80486
5.46018
1.01214
0.625389
5.42873
1.07239
2.72207
1.8428
4.67004
9.4729
10.876
1.19027
0.781083
2.12298
3.08762
1.38118
5.26461
2.06155
1.45571
0.630248
2.55416
1.86953
1.24873
2.02331
1.92559
1.93444
3.91006
2.49169
3.31671
4.2184
0.703881
7.33181
2.03252
1.92845
4.81996
5.31365
11.2861
3.61612
0.785214
4.45003
4.40866
1.28272
2.47713
7.83599
1.94658
1.59507
0.771348
7.43062
9.03078
2.16685
0.73187
11.8093
0.921078
0.959428
11.9117
0.692218
7.66913
0.763411
1.2032
0.79728
1.9597
6.59938
2.07785
9.07793
3.89488
0.86232
6.96861
1.62293
2.05967
1.85513
1.53885
1.36279
1.35263
1.14485
3.57096
7.63829
2.65537
0.911024
0.733273
2.49368
7.91014
8.69184
0.724357
6.90453
0.795839
5.35693
10.168
1.84618
1.76211
3.39004
1.62124
2.18498
1.19524
1.02678
0.998972
1.0404
2.33276
2.79793
10.5468
3.34049
5.86701
1.72527
2.1299
1.84419
4.50142
0.694951
1.46288
5.93063
5.1838
9.55191
1.39078
6.13725
2.31916
2.29271
2.78744
2.77497
5.62595
0.658092
4.86264
1.13641
4.44232
2.69066
8.55973
1.12438
0.822749
10.2758
0.80441
2.97472
2.7347
2.94583
2.83024
2.3064
2.00094
1.57206
1.44506
3.81111
11.0658
11.1612
0.808069
0.994131
5.20673
3.35444
4.17956
4.50983
2.00615
0.758609
0.796609
10.8209
9.18894
7.6029
1.72013
5.16348
8.81427
5.28681
5.00405
10.3201
2.21771
5.76563
0.690674
2.42915
2.99679
8.70771
2.61167
2.28039
3.3321
3.25559
2.5395
2.47487
2.50043
1.96108
1.75302
3.03089
1.20633
3.1904
1.42701
2.52768
2.4199
1.42218
7.02539
6.21245
5.88794
2.60905
2.59386
1.75756
2.98923
1.59578
1.20138
1.19876
3.22417
1.09462
1.0032
3.4464
9.52074
8.76238
3.48783
7.09231
3.64097
2.89029
3.64046
2.94414
2.55236
2.62786
9.23101
7.85532
9.07449
8.67677
8.83246
3.60302
3.8405
8.96934
1.1742
3.97393
3.48918
3.37476
3.22441
8.62407
9.00523
2.37942
2.89781
3.30962
8.15889
4.30261
11.3761
1.88431
1.48211
1.23279
0.839139
2.19829
2.46683
0.812343
0.762594
1.15441
2.07173
2.65083
1.47934
1.40806
3.16767
2.04906
2.09536
3.44996
4.358
2.135
2.86646
2.54262
3.2067
3.42269
1.78877
2.82952
2.9887
1.51191
3.68916
1.76002
1.28858
8.90763
0.74599
0.692757
4.61405
2.36302
3.18709
2.0279
9.56996
0.728839
9.24917
1.10216
1.16192
7.02839
2.6884
2.34578
2.8301
1.9886
3.18891
1.97098
6.23856
8.94951
0.996056
2.79419
1.38179
1.56776
8.19934
0.750881
3.72926
0.94876
2.73209
7.74026
7.30888
4.62083
2.66677
2.36146
4.96846
2.4658
5.29743
1.76593
1.69933
4.29065
1.27531
5.52785
1.21186
5.9023
1.99237
1.51584
9.53324
8.26958
4.86018
4.26161
5.02023
4.38393
2.99945
5.40014
3.0835
0.721283
1.31774
1.46857
2.70426
4.7216
10.4247
11.9321
3.78765
1.54947
1.46511
4.43515
2.87705
1.2993
2.48514
1.8298
1.47206
1.55923
7.00064
1.05478
1.67191
4.04451
3.07355
2.85867
2.75798
3.17555
9.4836
3.06166
1.37262
0.846564
2.12678
1.01152
0.703522
3.26545
1.22655
1.16121
1.17102
2.67067
9.01292
4.76831
3.45176
1.30392
7.35219
1.87571
2.0801
2.30017
3.18893
0.95617
2.45128
1.42894
1.7846
2.50276
2.37907
7.23576
1.03356
0.975505
3.45891
1.21903
3.70887
2.36855
12.13
1.28835
4.20358
3.32236
4.57706
4.85584
1.60676
3.2439
1.51884
3.73606
7.41894
8.1844
0.697696
2.03485
2.04813
2.2148
1.54632
2.48531
8.93033
4.18253
4.33156
0.704565
9.34445
1.12789
0.62635
2.85363
2.52842
4.78276
17.2608
4.46574
1.17657
1.29154
1.99297
7.77578
2.74315
2.91015
2.43802
1.19432
10.7061
0.628633
1.40157
3.28532
2.57907
4.19796
1.2842
2.72927
4.79954
44.9887
3.0506
2.33765
2.01882
5.30684
2.44674
2.05811
3.10152
7.36567
3.34541
3.6002
0.980529
1.89445
2.03609
3.63028
0.728969
1.16611
7.48035
1.81423
1.61506
3.46212
2.99276
5.46109
2.52299
6.08475
3.09891
2.87563
6.36259
3.36513
3.11155
3.00087
2.98087
3.53801
6.60941
5.79173
6.16738
5.6472
5.68932
5.95232
0.647856
0.701796
5.28822
3.00974
2.76082
0.736234
6.21679
7.10112
4.53799
1.66339
2.12999
1.92908
1.83018
4.08494
4.20959
1.76984
1.37779
5.56615
1.07545
3.48312
3.12379
2.95402
9.84922
0.711641
0.719645
1.64087
3.19363
2.8747
2.3759
3.1937
9.56183
9.76058
10.3528
9.67932
3.56329
4.4703
3.85148
3.33118
6.11881
0.723032
9.50065
44.6628
11.41
2.80877
2.30904
1.8955
2.22491
8.28
8.18246
2.81848
1.6109
4.50004
0.992379
2.91031
10.5873
4.28181
11.6078
2.08335
2.07387
6.00804
3.12725
2.8328
2.34847
10.1032
2.25166
4.59018
2.86143
2.90354
1.84332
5.4692
7.41165
4.08286
4.56142
4.87294
1.78828
5.93959
6.21569
4.82551
4.47358
3.89835
11.7117
4.64487
9.85455
8.77026
8.75739
5.72495
3.06088
2.5965
2.49526
2.52646
3.11875
6.00874
2.55525
2.74945
6.94161
1.95552
1.92329
4.31162
4.7929
3.07197
2.7698
1.07273
1.10313
1.22864
6.77882
9.52515
2.42377
5.19193
7.18982
4.30731
7.15211
0.7583
4.81296
4.27162
7.85541
8.91044
4.9147
3.0323
2.92864
2.49329
3.79115
5.13456
1.48527
1.86923
2.96237
4.17404
5.13183
1.6374
1.41624
6.40094
2.84206
8.79619
7.20754
6.7237
1.27033
1.29101
1.90315
3.19434
5.24787
3.03706
1.57875
5.13613
4.26516
1.52657
1.72598
2.57407
4.51589
2.91195
3.82201
4.49461
2.77544
2.08903
1.73722
1.90538
5.20033
3.10412
1.54893
2.78232
3.56773
3.44856
3.46047
3.0682
3.17324
3.36756
4.86702
5.36901
1.34379
3.49342
5.02357
2.68083
5.04063
3.50591
9.59391
4.41929
11.1042
7.62032
2.78694
6.60511
2.84641
6.60524
5.78445
5.17632
4.08063
5.44166
13.8331
15.811
7.50475
4.54478
7.41634
6.41382
6.33018
4.84339
1.06916
2.36531
2.41124
7.93705
7.0464
5.42634
6.31402
6.55127
6.89831
4.071
4.43663
4.46311
9.3372
6.03972
5.2072
5.02603
1.24498
4.64656
5.34273
2.19837
4.23423
7.51867
7.76234
3.16908
1.57515
5.87149
4.16927
4.0685
6.50429
6.06361
6.4925
5.65154
3.93464
5.6404
6.33517
7.56806
6.67039
7.68459
6.87758
2.21874
2.29161
5.00727
1.57861
5.83253
0.457496
18.4272
5.63358
5.37148
8.56425
8.77942
4.0824
6.54107
8.7671
3.03091
2.99628
8.02767
6.27934
7.07883
0.611399
3.30675
7.06217
12.7221
1.33842
1.1882
0.770009
0.741867
4.02249
4.54694
6.84863
2.94568
3.67289
2.75513
3.86057
6.29137
1.16894
11.1945
0.528691
0.723124
3.49941
5.38913
10.3621
6.67495
3.77843
6.55577
0.954461
0.757339
8.18386
14.3468
6.02977
0.694919
6.8078
4.3077
4.08234
1.81943
2.64661
5.22163
4.59089
8.56127
7.3527
8.4516
0.480929
5.74853
10.2366
5.37675
5.96652
2.738
3.95653
4.44796
4.9594
4.58549
5.5274
6.83069
0.59199
3.76497
0.611178
4.95383
3.91013
4.61522
5.29764
2.41057
4.89697
18.7337
2.60128
5.3986
5.19921
5.09339
4.5484
4.67835
6.76115
4.38092
4.16674
0.503939
3.57145
2.88009
5.83878
5.28315
4.28019
3.31375
8.96184
3.00066
5.60341
4.97157
4.49096
0.554213
3.3117
7.86237
14.3534
0.475479
3.30754
3.53942
2.62412
2.46642
1.20485
6.69405
6.35939
7.19469
6.95499
0.450409
5.15667
0.78998
10.4789
10.5343
10.9632
7.63052
8.43521
2.85269
6.50572
3.89317
4.41158
2.37201
4.56611
3.97243
8.80181
0.649845
3.71254
17.1865
3.82372
0.48552
0.589995
6.7313
8.41627
6.31817
0.5269
0.77687
6.29721
0.941166
5.75501
6.36755
0.501191
11.8738
5.72297
12.1168
8.42809
11.9449
0.567555
2.42207
7.48859
6.5358
6.29411
1.85616
1.01255
5.87116
5.61723
5.61077
1.49205
5.33403
5.29457
0.495464
0.500319
4.94327
5.30577
5.20457
1.25373
1.11859
2.90216
2.61769
0.459673
3.30165
16.2223
5.4267
4.19329
5.97473
2.82147
8.40142
5.91512
7.57454
10.3178
11.0959
3.18404
2.41633
5.37523
4.94286
4.72828
5.87075
2.70005
13.4835
5.8499
5.24498
0.496666
4.03616
3.45829
14.3518
3.86274
0.457947
5.28241
8.30984
1.48038
5.11661
3.44762
1.09607
5.36746
1.14216
6.87402
4.94661
8.41858
13.7535
6.78237
6.12985
5.47487
5.93265
5.7542
5.07662
13.1615
14.1643
4.55426
9.43842
6.54806
0.764621
4.70562
2.52539
3.16247
2.78773
2.76714
5.70048
5.90668
3.54056
3.22223
2.20989
5.28329
3.44341
8.64789
6.00956
5.51733
5.53372
3.28096
12.1886
3.71662
6.6688
8.4195
2.89115
2.99779
20.8893
5.06499
8.63603
10.7542
10.3042
6.7236
6.14371
6.43135
8.9628
6.20862
6.37706
6.58814
7.35221
4.61954
3.01796
1.12981
19.0535
6.46451
4.97459
2.81217
1.49132
1.00516
2.79383
2.57971
0.479896
19.5128
4.7366
4.94163
4.43123
2.97963
5.84985
3.30736
6.36903
10.3411
8.2766
6.41355
4.60437
1.85816
2.01943
1.38558
5.97833
6.82625
6.8724
1.84103
10.1731
12.7098
0.564736
7.26375
7.05354
0.458479
6.2246
6.20874
6.94743
3.21558
0.771303
5.7879
6.79362
0.567177
3.34555
14.4087
7.41064
11.3162
7.63463
9.32046
6.82755
8.36378
5.35881
5.24607
8.51947
9.63399
3.86253
4.74009
2.26087
2.12876
10.348
8.56639
0.544079
18.9537
14.2888
10.973
7.22587
2.32482
1.10396
5.59341
6.92949
1.49513
2.72573
16.4845
15.6
5.31265
6.77491
6.59275
5.22938
1.68885
2.19969
18.5349
0.506021
1.45002
5.21307
6.1798
0.483873
0.563943
0.811035
0.542479
2.3649
5.53298
10.8339
4.91035
1.26272
11.7835
10.2261
0.478937
4.43683
6.63518
3.36415
6.78687
6.93197
17.5722
7.25734
7.67926
0.502074
6.32892
5.67999
1.99144
0.932801
5.99344
5.76323
0.810904
0.847789
6.338
9.57967
9.4652
8.98971
4.95941
5.67916
1.6227
9.39856
1.74709
1.3223
11.2282
5.06841
0.490149
6.40778
5.39701
10.1272
0.476619
4.86635
5.09402
4.08563
8.04689
6.70163
5.1111
4.37206
4.50538
1.84616
1.70423
7.0555
1.91802
0.510397
0.483793
0.489451
0.500358
0.983292
4.22927
7.81212
5.38499
0.463027
5.42658
0.520721
5.56148
5.87709
0.487737
6.48733
9.22967
7.05891
4.32292
7.64354
11.2131
1.19558
7.54436
6.62917
4.14357
4.77627
2.71917
4.81147
7.47001
0.7996
13.6419
2.98995
0.881344
1.48217
0.464261
2.92947
4.41273
6.44418
11.7909
10.2071
8.46794
8.00929
6.52263
4.74497
0.476514
0.488038
0.470065
4.4154
6.86736
11.514
0.505382
14.7626
6.1323
0.691081
1.31178
7.27439
4.06762
0.491592
12.2863
2.89632
10.2973
2.1565
13.8649
5.6294
1.32658
0.990053
5.42005
0.795205
5.53284
4.51908
0.488436
6.42974
0.770374
4.67508
5.64565
2.95736
8.1873
10.0908
13.2032
5.67576
5.5518
6.69321
3.28148
2.82915
0.554682
6.20474
0.942402
6.98175
5.31349
0.486785
1.71026
7.06266
7.26495
4.36928
0.482142
7.60961
6.15542
6.34242
10.0741
7.36565
3.98397
0.565011
1.09573
1.07514
0.545366
0.558645
3.46334
2.39423
6.63418
1.88573
0.789121
1.92037
3.87278
4.49388
3.40133
4.13112
2.07536
0.729924
0.927305
11.755
1.32732
8.70215
3.71032
6.52332
7.06871
12.7853
0.49104
3.96691
7.42158
9.06886
0.793938
3.62792
5.96118
3.34822
2.90308
5.48824
6.27288
6.87791
3.67073
3.83258
4.50871
0.612617
1.96625
2.65402
5.5393
4.17475
2.4233
5.52759
2.52635
0.731303
6.48032
11.6514
4.11523
3.01449
1.28172
4.6715
1.43586
1.54877
6.2686
12.6564
8.04927
17.9643
5.83396
10.1184
5.51066
5.55316
0.492479
0.550574
0.558585
0.550847
2.16256
1.51624
1.80238
9.37175
2.39368
1.84607
0.49777
2.28963
10.3718
9.3683
3.79999
3.00541
3.70656
5.49024
5.41578
5.10471
3.28214
5.313
5.57381
2.43196
6.04716
0.704172
7.29326
9.73739
12.8029
4.46291
0.728235
13.1293
2.50934
14.052
17.9059
0.49
12.8065
13.2627
5.76637
12.9046
7.70981
12.1806
0.715524
9.89275
1.67993
3.2524
5.44451
9.41144
0.502904
6.56976
6.65001
6.55458
8.76901
7.76488
8.1133
0.634809
9.51989
15.1318
0.816099
5.70792
0.675899
0.472933
0.743359
13.3335
7.83965
0.642239
6.01546
6.63514
9.71738
5.35206
5.6204
5.26606
0.450419
0.516705
4.66066
0.798629
8.14031
0.935097
5.03573
0.801515
1.30366
1.28779
0.984381
6.24953
7.41623
2.39449
9.89235
6.34064
10.9009
1.17501
9.03016
0.612426
9.87061
5.31423
4.50276
4.12543
2.17592
9.09307
3.24017
6.6967
9.15789
6.76131
1.46701
2.09895
19.1209
0.776936
5.8035
20.0811
9.81716
8.63906
0.521053
6.37564
5.3697
10.264
0.473494
4.96605
10.4644
6.04887
6.51097
2.3758
5.30575
3.7969
9.85854
1.72641
0.480653
0.966393
3.10836
0.49547
4.57248
4.5329
1.48841
2.01276
6.77955
8.48177
5.4057
11.5895
6.05072
8.5813
5.77167
5.2083
0.47673
7.7382
10.5618
4.20298
2.17575
2.61925
3.63132
2.8692
8.94882
15.4315
12.1686
0.605852
6.32827
4.16535
0.67242
4.6658
4.84274
9.6297
6.13398
1.138
8.81232
8.77868
6.28191
0.507161
4.86285
4.50164
13.7412
8.57998
3.07997
4.79346
17.841
16.4452
6.8025
11.3232
7.26714
7.2981
1.1737
0.850503
2.68355
8.21039
6.87076
10.0565
10.0667
5.8047
5.47513
5.13305
6.01009
4.87285
3.70008
6.05149
6.51691
3.82521
2.05388
10.0323
3.18014
5.5656
6.31028
4.26078
3.23942
3.2068
6.57887
3.15601
4.7164
4.24915
3.4572
4.95975
1.3788
1.13583
8.38557
8.76399
2.45066
5.23709
6.73096
7.10866
0.632412
4.1689
0.482014
5.39608
6.56037
6.3123
4.7888
12.0244
2.11868
15.0739
4.4053
6.34727
1.0347
2.79315
2.9872
6.84965
10.004
4.48169
5.79645
6.50365
3.2894
4.42915
7.61815
8.16093
6.83435
7.30274
6.90544
14.0405
10.1473
4.3925
4.06222
8.63196
1.70679
1.00589
1.42123
4.65587
2.29285
0.84176
0.72697
4.05216
3.50306
6.71026
7.97661
1.24756
1.51098
1.19833
2.59088
8.11595
8.62084
5.82471
1.13336
0.771894
16.5101
4.87516
9.00349
16.6065
14.2101
9.46839
16.599
3.37926
16.7498
13.6641
7.71103
8.74658
5.44649
1.68915
6.77535
16.097
2.92015
3.42899
5.21826
2.50564
4.57517
4.49827
7.3665
1.20302
6.9687
7.89696
3.18919
0.500456
4.47669
14.8846
2.34983
3.44169
9.45953
4.60435
1.87121
0.468816
2.08289
0.434447
3.97913
0.798348
7.56476
4.68484
2.94386
3.88596
1.90612
6.09013
2.2428
2.12764
8.34939
0.562525
4.87793
7.73991
7.79217
13.8767
2.11188
3.40967
4.28461
2.25029
1.06778
1.4403
6.96176
5.99966
7.21904
0.492117
0.521117
1.63523
4.58012
3.13652
2.57063
3.07612
5.50372
8.82844
2.98142
2.69055
7.37952
10.2185
4.63578
4.71846
8.62303
0.593038
14.0509
5.55058
0.554628
0.685193
1.32498
12.7864
5.36141
5.1191
8.02602
8.5135
7.89841
10.9467
3.39216
0.47938
14.4583
15.9786
8.12804
0.588043
2.87906
12.037
6.30953
0.530567
13.097
13.2095
6.52886
6.72289
4.92852
4.53702
5.57241
1.71605
6.07335
15.0566
4.22699
4.62507
2.61401
0.561948
6.35766
3.48748
1.02815
3.67002
0.773696
5.38475
4.10446
7.69396
7.5947
5.0798
6.67756
8.90705
0.945472
10.3303
1.87799
7.65199
7.67717
0.936252
6.19035
2.91385
2.51775
4.98111
12.3719
10.5595
0.574652
0.509337
6.22626
4.81435
1.19637
6.21461
11.589
0.702003
3.35486
0.49135
3.01333
0.939346
13.4486
11.7753
7.73219
3.56178
7.25502
4.32777
4.67811
0.509499
0.514634
5.05973
3.10288
4.53145
4.08255
1.51037
4.43728
2.80457
6.19729
5.01803
8.19184
8.82308
3.53866
13.9212
14.6596
10.238
0.52129
0.516214
2.92519
4.51137
4.59526
7.77167
6.72518
6.55172
11.0355
3.88105
3.06794
5.08526
5.45388
7.39966
14.8
16.4053
14.6513
17.8336
4.90901
1.39999
15.2711
15.3556
12.8283
0.456856
4.15937
4.75393
2.87701
9.57066
7.29942
6.04739
4.70739
18.3207
7.21316
1.33427
12.2487
13.5786
6.0548
0.933026
2.94051
6.16637
4.09613
15.6228
0.80851
6.48503
7.23788
0.732362
6.14786
14.0444
8.42934
8.88276
4.43484
16.5752
6.74848
11.9803
3.064
3.07815
3.0795
3.34841
0.451307
7.36918
10.5966
5.63027
0.499986
13.1642
5.09822
1.50105
8.36049
4.56925
12.1944
10.4758
1.66295
8.18284
8.43079
1.85003
3.51729
3.82576
4.49213
2.54749
5.27149
3.68088
3.42262
7.73111
2.41749
15.5734
0.706629
4.21581
6.51032
6.76558
6.58687
12.5501
2.953
6.76729
3.72005
3.29502
0.58581
0.512869
5.74449
7.8233
12.9547
1.21184
1.90176
1.55612
1.75266
0.78157
10.0777
8.49487
8.47124
5.92836
2.89745
14.0389
8.43018
0.459354
0.462438
5.46481
0.64338
2.29926
5.99754
8.84211
0.776842
16.5126
14.6393
5.73184
0.494869
6.60005
9.50327
2.03534
5.94115
9.58611
7.87694
6.66222
1.76861
1.53445
13.2377
15.2666
6.84461
6.91193
3.97185
1.35738
0.504963
5.41023
8.11418
10.1395
5.05573
4.3257
0.60853
3.37848
0.535656
8.94491
0.5823
0.831984
5.76264
9.18785
2.76158
1.35401
2.01131
2.5312
6.14165
4.39722
0.444167
0.436711
5.97154
6.32594
10.979
10.4169
0.614691
15.2249
2.52577
2.8562
3.99019
0.646329
4.09428
2.79057
14.8846
4.92077
5.70702
5.6481
9.00694
8.69408
9.09241
6.73465
2.5382
2.0491
5.12333
9.31492
0.773571
0.709992
0.748653
10.0222
4.02579
0.959396
0.499533
0.50322
13.5099
2.00268
12.3844
13.834
10.0714
7.4894
5.87543
9.31042
6.41988
3.96074
6.85399
13.3998
14.4183
9.09583
9.76784
1.47176
7.79225
3.24556
6.12936
18.2799
9.38611
13.2924
0.648472
0.516097
15.0486
7.83023
7.63564
8.18648
7.60495
9.67893
9.57721
6.61527
6.56086
4.53192
10.2185
4.30512
0.668229
0.500802
7.45071
2.90951
4.80596
10.9386
6.31413
4.51063
13.9532
2.53034
17.6204
9.7536
8.09614
3.69192
14.7035
0.521335
5.82655
2.80972
5.08984
8.77991
5.00405
3.69251
9.25423
0.820472
3.4338
5.81787
6.96841
16.8859
3.74433
7.59997
12.6379
1.63985
5.96175
13.7923
6.22295
7.11088
10.9721
12.0143
0.517254
0.88707
10.6691
7.90662
14.3366
0.803042
5.83513
7.6157
0.95552
11.863
19.0562
6.89421
0.510208
8.19871
4.38211
2.22461
4.91339
1.16833
8.68021
0.507729
0.486756
6.25573
8.20252
6.62342
5.63059
10.7542
6.69776
3.63699
6.83378
2.38489
0.505783
7.68163
11.3539
3.90328
0.945641
10.3479
5.60217
9.40881
3.33902
4.72801
7.03025
6.61153
3.13075
2.62861
4.1082
2.38441
0.531504
0.497925
2.51533
5.15933
1.47019
2.23446
3.13053
9.42147
6.10878
6.4708
2.60233
2.10083
1.74137
8.49595
3.83599
1.2758
11.5778
1.75755
8.81972
1.18137
2.92225
4.87975
8.20135
8.3216
1.52168
1.54546
6.89995
4.34115
1.5841
11.8595
6.36813
3.75865
2.6898
2.27088
6.89856
5.29104
4.23771
3.89935