/*--------------------------------*- C++ -*----------------------------------*\
| =========                 |                                                 |
| \\      /  F ield         | OpenFOAM: The Open Source CFD Toolbox           |
|  \\    /   O peration     | Version:  2212                                  |
|   \\  /    A nd           | Website:  www.openfoam.com                      |
|    \\/     M anipulation  |                                                 |
\*---------------------------------------------------------------------------*/
FoamFile
{
    version     2.0;
    format      ascii;
    arch        "LSB;label=32;scalar=64";
    class       volScalarField;
    location    "10";
    object      nut;
}
// * * * * * * * * * * * * * * * * * * * * * * * * * * * * * * * * * * * * * //

dimensions      [0 2 -1 0 0 0 0];

internalField   nonuniform List<scalar> 
76965
(
0.00144861
0.0014397
0.00125196
0.00114111
0.00143656
0.00140905
0.0014027
0.00136589
0.000985503
0.00150478
0.00116617
0.00110733
0.00132179
0.00142651
0.00146851
0.00166794
0.00114068
0.00266416
0.00178319
0.0011908
0.00164784
0.000763979
0.000703502
0.000745842
0.00120107
0.00127377
0.00124885
0.000987281
0.00104632
0.00150933
0.0013847
0.00153361
0.00172763
0.00148622
0.00129476
0.00131097
0.00127122
0.0010092
0.00110485
0.00181818
0.000780566
0.00150628
0.00124401
0.00127191
0.00182134
0.00123248
0.00154284
0.00133577
0.00149402
0.00124462
0.00136853
0.00120678
0.00146447
0.00109142
0.00146045
0.0011739
0.00133469
0.00122503
0.0014523
0.00147416
0.00111017
0.00129989
0.00164893
0.0010796
0.000661193
0.000897579
0.00132771
0.00170042
0.000994115
0.00168005
0.0012101
0.000928469
0.00129505
0.00143091
0.00155545
0.00144901
0.00123411
0.00152904
0.00193282
0.000933534
0.00164606
0.00154275
0.00125707
0.00108279
0.000895945
0.000926369
0.00105814
0.00154236
0.0015097
0.00159283
0.000687908
0.00147281
0.0014544
0.00145584
0.00176251
0.000717437
0.00100959
0.000924213
0.000981141
0.00113361
0.00173859
0.00114931
0.00147261
0.00139711
0.00145335
0.00106442
0.00102552
0.00158518
0.00124083
0.00138622
0.00105283
0.00126701
0.0011499
0.00133261
0.000715239
0.000577734
0.00120351
0.000910958
0.00148008
0.00149867
0.00169012
0.000963366
0.00114571
0.00208901
0.00118319
0.00116038
0.00143385
0.00116436
0.0013155
0.00141423
0.00146937
0.00148742
0.000805347
0.000980671
0.00140936
0.000968193
0.00117729
0.00102473
0.0010751
0.00127677
0.0011894
0.00127003
0.00131196
0.000700362
0.00137313
0.00146802
0.00148693
0.00160717
0.00111601
0.000956562
0.00100228
0.00153909
0.000932691
0.00106924
0.00105879
0.00309061
0.00140444
0.00160738
0.000890753
0.00126714
0.0012602
0.00136289
0.00125492
0.00128032
0.000991706
0.00120311
0.00186366
0.00148947
0.000992244
0.00143687
0.00111964
0.00128551
0.00118764
0.000908381
0.000994508
0.00112252
0.00106501
0.00114758
0.000889293
0.00129693
0.00112233
0.00159244
0.00115824
0.00109604
0.00113831
0.00137908
0.00184094
0.000976342
0.00110581
0.00116069
0.00101341
0.00148175
0.000926932
0.00104487
0.000971662
0.00130245
0.00152666
0.00145975
0.00094418
0.000957017
0.00120229
0.00172879
0.000918457
0.00102615
0.00113227
0.00132744
0.000915598
0.00144282
0.00140649
0.000849547
0.00134981
0.00120679
0.00141072
0.00121256
0.00104329
0.000879261
0.00107197
0.00130443
0.00125911
0.00108359
0.000970356
0.000817753
0.00115199
0.00115003
0.00155873
0.0007001
0.00164006
0.00157205
0.000917485
0.000933604
0.000872763
0.00137226
0.00108128
0.000956228
0.000967198
0.000948505
0.000960884
0.000932774
0.00135118
0.00151491
0.00180467
0.00183524
0.00117509
0.0012099
0.00103342
0.00121545
0.001075
0.00142149
0.0014364
0.0018749
0.00179483
0.00131363
0.00152472
0.000985001
0.00143036
0.00102614
0.00123346
0.00149646
0.00110161
0.000895257
0.00127232
0.00123673
0.00132966
0.00151603
0.000953499
0.00187014
0.00101212
0.00120467
0.00137088
0.000987512
0.0011006
0.00146917
0.000931659
0.00125065
0.00162096
0.00236626
0.00184152
0.00118881
0.00129952
0.00109446
0.0010411
0.00105272
0.000979892
0.00127012
0.00117952
0.00125167
0.00341988
0.00172787
0.001102
0.00173402
0.00127174
0.00148553
0.00123239
0.0015066
0.00162628
0.0017651
0.00139556
0.00156647
0.000879367
0.00163087
0.0010374
0.00244422
0.0013148
0.00161747
0.00182891
0.00123964
0.00100791
0.00109468
0.00198951
0.00151011
0.00106779
0.000994348
0.00142104
0.0013656
0.00122328
0.00129932
0.0013312
0.00121277
0.000959128
0.00121135
0.00149671
0.000933769
0.00126712
0.00118464
0.00117831
0.00168489
0.001054
0.00103393
0.00151365
0.00136477
0.00163341
0.00101027
0.00107946
0.00103266
0.000961721
0.00101247
0.00091558
0.0015828
0.00150637
0.0015511
0.00164017
0.00147097
0.00164944
0.00122606
0.00155239
0.00166708
0.00153986
0.00166502
0.00113749
0.00126243
0.000939192
0.00124243
0.0011534
0.001979
0.0019228
0.00109026
0.00132015
0.00157529
0.00102003
0.00115768
0.00167155
0.00093767
0.00116253
0.00111617
0.00123266
0.00103621
0.000982453
0.00134614
0.00131095
0.00102723
0.00131383
0.00141101
0.00144917
0.00155489
0.00152355
0.00149044
0.00239587
0.0014884
0.00117893
0.00155413
0.00214475
0.00165907
0.00118145
0.00117889
0.00096357
0.000827558
0.0010602
0.00134441
0.00104388
0.00160467
0.00152436
0.00128327
0.00147334
0.000772753
0.0010387
0.00106131
0.00161906
0.0011589
0.000864944
0.00126922
0.00145557
0.00122819
0.0015258
0.00153332
0.00126364
0.00115545
0.00184997
0.00153684
0.00100337
0.00170998
0.00135522
0.00148006
0.000957857
0.000967226
0.00100259
0.00093059
0.00140937
0.00142965
0.000961912
0.00141055
0.000940479
0.00130187
0.00121987
0.000973275
0.00168232
0.00111378
0.00163241
0.00131202
0.00134584
0.0012663
0.00123907
0.00116891
0.000837146
0.00119537
0.00118385
0.000579774
0.00115589
0.00145666
0.00128386
0.0010036
0.00110408
0.00121131
0.00139187
0.00171076
0.00155364
0.00147424
0.00125212
0.00104666
0.00095206
0.000720212
0.000986007
0.00144658
0.00141698
0.000942554
0.00128474
0.00136277
0.00157078
0.000950421
0.00107999
0.00118709
0.001054
0.00194938
0.0012664
0.00109666
0.00153419
0.00160184
0.000944926
0.00100885
0.00125158
0.000566228
0.000998312
0.000993291
0.000901942
0.000945801
0.00109947
0.00161279
0.00148106
0.0015823
0.00101691
0.00155554
0.000948393
0.00121862
0.00133871
0.00089008
0.0014098
0.00116978
0.00170331
0.00105169
0.00110807
0.00132009
0.000897129
0.00136446
0.0012718
0.00145577
0.00155074
0.00117513
0.00138537
0.0010951
0.00113385
0.00137716
0.000599152
0.00117469
0.000945658
0.000969349
0.00120006
0.0010514
0.00130543
0.00138237
0.00145648
0.00127974
0.00173447
0.00127774
0.00107474
0.000941039
0.000968369
0.000985116
0.00154245
0.00158585
0.00104167
0.000961202
0.0014587
0.00194691
0.00109632
0.000904675
0.00106651
0.000884915
0.000938069
0.00148259
0.00192573
0.00115988
0.00114769
0.00124756
0.00189198
0.00102417
0.00135582
0.000868864
0.000909341
0.00154337
0.0012887
0.000999147
0.00143746
0.00105196
0.00122036
0.00151482
0.000917854
0.00205509
0.00107741
0.0013748
0.0014817
0.00174113
0.0020199
0.00143009
0.00194172
0.000939358
0.00131948
0.00125544
0.00135769
0.00163316
0.00101197
0.000891374
0.00110072
0.00112429
0.00190632
0.00101181
0.00196114
0.00128644
0.00130934
0.00118555
0.00114066
0.00179489
0.000806295
0.00111777
0.00106677
0.000919676
0.00105371
0.00187568
0.00120595
0.00111524
0.0016135
0.00112944
0.00110076
0.00113404
0.001299
0.00129087
0.00175129
0.000897358
0.00118056
0.00118704
0.00128322
0.00142104
0.00150345
0.000658429
0.00130478
0.00100649
0.00138869
0.00104818
0.00118972
0.00110966
0.0012851
0.000963943
0.00112121
0.00209407
0.00172724
0.000868726
0.00193836
0.00119435
0.00209817
0.00082887
0.00108671
0.000875133
0.000974388
0.0011682
0.0014461
0.00162223
0.00138262
0.000968441
0.00140998
0.00148202
0.000951717
0.00157491
0.00194702
0.00079546
0.000980985
0.00100684
0.00133148
0.000694716
0.000949679
0.00111753
0.00142305
0.00105826
0.00147393
0.00127356
0.00150729
0.00121118
0.000997937
0.00095986
0.00105208
0.000874567
0.000958852
0.00100451
0.00106399
0.00110162
0.00213775
0.000979706
0.00089224
0.00100358
0.000898922
0.00118856
0.00127716
0.00164931
0.00157087
0.00169083
0.00151089
0.00143762
0.00187964
0.00121456
0.00115386
0.00109631
0.00109625
0.00120785
0.0010071
0.00117852
0.0012876
0.0011636
0.00168018
0.00123135
0.00191563
0.000412549
0.00141695
0.00172402
0.000926435
0.000939557
0.00129243
0.0019362
0.00119782
0.00114045
0.00126926
0.00114486
0.00149773
0.000919943
0.0018737
0.00140413
0.001269
0.000987014
0.00175241
0.00153413
0.00136931
0.00255071
0.00149349
0.00152241
0.00104989
0.00143085
0.00144207
0.00144327
0.000984535
0.00107461
0.000907935
0.00113877
0.00134055
0.00219154
0.000955271
0.0015233
0.00121465
0.00108792
0.0019548
0.00142993
0.00093764
0.000955892
0.000960228
0.00153613
0.0013266
0.00183606
0.0012454
0.00126387
0.00114357
0.0011572
0.00119393
0.00138566
0.00142953
0.00167088
0.000833105
0.00114568
0.00109367
0.00141135
0.000985085
0.00149136
0.000983027
0.00139049
0.00121716
0.00172443
0.00168122
0.000848363
0.00155996
0.00121639
0.00165203
0.00111581
0.00147615
0.000986183
0.000746378
0.00172379
0.00102758
0.00167203
0.00139917
0.00132436
0.00137248
0.00096406
0.00207912
0.00139739
0.00133573
0.00093347
0.00110812
0.00142288
0.00164059
0.00157919
0.00080644
0.00216437
0.001007
0.00109001
0.00111178
0.00099586
0.000845111
0.00116034
0.000983841
0.00109621
0.00110929
0.00130359
0.00103708
0.00101556
0.00138144
0.00124916
0.00119496
0.00174234
0.00161538
0.00142245
0.00119604
0.00100491
0.00134536
0.00136344
0.00148912
0.00117161
0.0012313
0.00105274
0.000881852
0.00114617
0.0013239
0.00167561
0.000928752
0.00113436
0.000842233
0.000917237
0.00149312
0.00152728
0.001081
0.00137707
0.00116476
0.00131929
0.00153858
0.00128007
0.0010459
0.00120753
0.00168584
0.00148732
0.00108291
0.00152876
0.000956677
0.00144374
0.00163108
0.00133298
0.00161968
0.0011826
0.00112483
0.00121734
0.00112452
0.00125729
0.00169785
0.00105091
0.00107863
0.00125084
0.00139229
0.00143145
0.00175984
0.0018122
0.00146724
0.00104384
0.00174529
0.00114954
0.00122004
0.00103976
0.00106319
0.000925001
0.00170359
0.00171736
0.000779147
0.00127503
0.00125482
0.00126848
0.000746401
0.000945954
0.00112056
0.00116364
0.00146873
0.00092736
0.000976637
0.00119111
0.00289258
0.0013093
0.00179734
0.00209905
0.00203501
0.00110852
0.000833082
0.000995132
0.00143605
0.0017088
0.00153127
0.000634069
0.00121526
0.00102902
0.00137167
0.000910245
0.00101646
0.000729091
0.000716489
0.00140765
0.00126784
0.00127351
0.00108293
0.00142138
0.00115214
0.00130555
0.0011872
0.00136298
0.00129071
0.0013177
0.00171178
0.00108598
0.0015118
0.00109349
0.0011015
0.0011417
0.00106526
0.000911276
0.00081277
0.00148588
0.00104281
0.000976264
0.000741761
0.000675464
0.00149446
0.00143761
0.00198809
0.00103933
0.000971095
0.000821267
0.00101628
0.00117418
0.00106241
0.00109807
0.00179266
0.0009707
0.000968767
0.00198801
0.00129926
0.00126741
0.00139053
0.00126989
0.0011132
0.00132123
0.00107207
0.00144806
0.00129976
0.00100865
0.00108766
0.00159536
0.00105925
0.000976389
0.00155088
0.000965628
0.000798351
0.0020482
0.00112925
0.00105778
0.00119695
0.00133579
0.00146127
0.00129565
0.00128225
0.00103143
0.00103202
0.00159639
0.0015282
0.00130242
0.00129562
0.0010355
0.00163275
0.000894362
0.000936957
0.00117246
0.000863034
0.00125702
0.000978909
0.00158325
0.00124927
0.000741147
0.000717249
0.000916073
0.000887763
0.00104446
0.00108835
0.00102769
0.000945334
0.00130292
0.00132338
0.00146262
0.0012668
0.00111797
0.000978475
0.00149983
0.000961575
0.000976074
0.0012292
0.00110597
0.00115022
0.00132916
0.000909978
0.000924312
0.000940363
0.00106362
0.000973128
0.000942024
0.000529194
0.000991533
0.00140327
0.000795049
0.000836291
0.00130967
0.00131973
0.00114846
0.00143665
0.00145063
0.00101538
0.00142632
0.0016986
0.000923643
0.000970742
0.000993319
0.00144767
0.00196378
0.00100761
0.00115388
0.00145936
0.00162539
0.00110801
0.00140963
0.000982568
0.00140705
0.00147773
0.0015197
0.00109638
0.00132353
0.000892621
0.00131111
0.000969654
0.00129811
0.00124975
0.00129136
0.00127954
0.000864813
0.000870023
0.00146725
0.00148047
0.00172969
0.00109842
0.00108302
0.00108777
0.00145863
0.000958943
0.00113798
0.00125005
0.000814792
0.00094712
0.000940808
0.00156319
0.00185573
0.00134502
0.0012194
0.0013559
0.00124944
0.00152743
0.00100263
0.00142224
0.00101659
0.00151221
0.00137514
0.000995585
0.00165559
0.000797174
0.000878816
0.00115279
0.00139838
0.00150655
0.000857461
0.000983816
0.00173822
0.00119942
0.000985152
0.00125839
0.00163524
0.000979538
0.00133554
0.000972798
0.00135897
0.000951974
0.00136482
0.00152267
0.00120359
0.00163058
0.00141071
0.00099615
0.00120715
0.000887479
0.000901578
0.000895386
0.00127614
0.00106497
0.00105429
0.00097333
0.00165734
0.000720647
0.00170951
0.001728
0.00196375
0.00208081
0.00114053
0.00136189
0.00125268
0.00143386
0.000898829
0.000887786
0.00119943
0.00102903
0.00131011
0.000962193
0.00130613
0.00124012
0.00130148
0.00104158
0.00135062
0.00161762
0.00113333
0.0018319
0.00152801
0.00137499
0.00142196
0.00138482
0.00136832
0.00077614
0.0010801
0.00112427
0.00116222
0.00100705
0.00118616
0.000766592
0.000687711
0.00139322
0.00129514
0.000940901
0.000959303
0.00104304
0.00106702
0.000953565
0.00152893
0.00162822
0.0012189
0.00104809
0.000911682
0.00163137
0.00194384
0.0013209
0.00101899
0.00133125
0.00130367
0.000947802
0.00149615
0.00141705
0.00105238
0.00109816
0.00153509
0.00148674
0.00182609
0.00132066
0.000612392
0.00051763
0.00143442
0.000899636
0.00104685
0.00131414
0.00120234
0.00118284
0.000825579
0.00169146
0.0017808
0.001412
0.00135212
0.000881541
0.00123751
0.0011677
0.000848875
0.000806925
0.00154157
0.00104911
0.00112564
0.00140065
0.0014418
0.00101981
0.00134329
0.00100646
0.00161971
0.00226223
0.00110944
0.00107146
0.00100994
0.00128243
0.00157432
0.00149177
0.00181342
0.00118059
0.000996094
0.00118992
0.000966042
0.00129016
0.000992459
0.000888084
0.00115229
0.00121686
0.00110799
0.00112426
0.00157667
0.00100703
0.00171165
0.00123492
0.00112506
0.000983172
0.00126024
0.00127704
0.000839067
0.00143364
0.00136006
0.000882812
0.000897875
0.00143506
0.000923127
0.000618139
0.00129334
0.000929496
0.000732628
0.00164537
0.00166914
0.00137803
0.000949092
0.00155543
0.00118762
0.00447095
0.00126218
0.00118511
0.00126248
0.00139987
0.000801768
0.000919947
0.00136755
0.00147758
0.00177548
0.00181111
0.00111271
0.00112531
0.000955314
0.00169339
0.0014005
0.00145921
0.00211371
0.000972019
0.000943231
0.000991073
0.00104964
0.00127799
0.000903759
0.000985145
0.00165943
0.00113876
0.00139096
0.000953802
0.00101742
0.00139042
0.00126327
0.00123506
0.000954212
0.000937106
0.00123547
0.0016141
0.00159911
0.00159685
0.000717212
0.00143728
0.00118822
0.00109808
0.000822344
0.00117768
0.00178872
0.0014499
0.00179178
0.0018363
0.00174948
0.00123732
0.0011965
0.00132688
0.00117225
0.00118071
0.00113874
0.00117396
0.00178284
0.00165677
0.000981225
0.00101103
0.00101095
0.00120828
0.000921772
0.00104859
0.000942866
0.00105806
0.00130598
0.000940572
0.00182103
0.00102369
0.00118194
0.00152983
0.000887674
0.00120778
0.00117562
0.00107031
0.00182041
0.00140178
0.00158834
0.00113483
0.00118877
0.000955097
0.00126716
0.00103004
0.00147156
0.00146942
0.000945624
0.00115123
0.000943007
0.000857574
0.00134921
0.00106482
0.00219673
0.00104681
0.00254223
0.00240912
0.00238743
0.00140851
0.0014765
0.00133345
0.00117975
0.000711496
0.000985686
0.000990122
0.00120471
0.00151443
0.00221702
0.0013663
0.000929351
0.00104626
0.00134099
0.00107618
0.0011197
0.00130351
0.00106697
0.00108967
0.00138096
0.00100494
0.00198214
0.000919175
0.00126158
0.00254367
0.00125698
0.00110329
0.0018772
0.00101906
0.00130385
0.00168034
0.00117007
0.0015413
0.00107882
0.00148456
0.00120719
0.000865622
0.00104878
0.00140316
0.00148687
0.00120895
0.001285
0.00125745
0.000948424
0.00113049
0.00321441
0.00142496
0.00128459
0.00104755
0.00214989
0.00151028
0.00137807
0.00120026
0.000875245
0.00129175
0.000921709
0.000967665
0.000999122
0.00180064
0.00180129
0.00125272
0.00185845
0.000943423
0.000930132
0.00156219
0.00142614
0.00156834
0.00163173
0.00140313
0.00109936
0.000847265
0.00180113
0.00145685
0.00103665
0.00113033
0.00145621
0.00181465
0.00119129
0.00155205
0.00148652
0.00100897
0.00176846
0.00145752
0.00127188
0.00156048
0.00100473
0.00072118
0.00140185
0.000730858
0.000952109
0.000904045
0.00117257
0.00133798
0.00159946
0.00108195
0.00123932
0.00108768
0.00106076
0.00146696
0.00137295
0.00132877
0.000950292
0.00247187
0.00144301
0.000837294
0.0011252
0.00127327
0.00217371
0.00101572
0.00106566
0.000993715
0.00161308
0.00151115
0.00101964
0.000580249
0.00137949
0.00112546
0.00106084
0.00112098
0.00107612
0.00109523
0.000972047
0.00111187
0.00131906
0.00152614
0.00162542
0.00133378
0.0015189
0.000935397
0.000970595
0.000915142
0.00133432
0.00117089
0.00173471
0.000879207
0.0014577
0.00204305
0.00130437
0.00103814
0.00151805
0.00119535
0.00119061
0.00163412
0.00189366
0.00116708
0.00155332
0.00118286
0.000996524
0.00151727
0.00126602
0.00106116
0.00129856
0.00143789
0.00184022
0.00108902
0.000931524
0.00159622
0.00155925
0.00131213
0.00128019
0.00170765
0.00184645
0.000842603
0.00122345
0.0013934
0.00106754
0.00111251
0.00193436
0.00145584
0.00161493
0.00189489
0.000987435
0.0023753
0.00150386
0.00142781
0.000998174
0.00121566
0.00133143
0.00133791
0.00134836
0.00112109
0.00123837
0.00125018
0.00124933
0.00145383
0.0015217
0.00144828
0.000917494
0.00102403
0.00097782
0.00150663
0.00145333
0.0015105
0.000833226
0.00104417
0.00132798
0.00124891
0.0014066
0.0015705
0.00101334
0.00131155
0.00132001
0.00108771
0.000952262
0.000989471
0.00057443
0.00105262
0.000967328
0.000904553
0.000532019
0.00113
0.00168277
0.00116562
0.000987653
0.00113854
0.00120798
0.00109903
0.000873952
0.0011097
0.000922442
0.00101502
0.00134602
0.0015858
0.00135434
0.00104694
0.000821843
0.00115785
0.0013134
0.00118795
0.000987402
0.00136586
0.00161005
0.00173836
0.00152816
0.00191225
0.00136149
0.00153611
0.00119852
0.00103866
0.0010199
0.00193567
0.00146085
0.00232022
0.00115473
0.00114348
0.00131745
0.00104604
0.00136078
0.00180497
0.00114303
0.00228667
0.00147994
0.00142174
0.00135664
0.00110485
0.00102289
0.00129362
0.0013603
0.00128714
0.00140464
0.00107002
0.00126915
0.00129871
0.00112666
0.00111656
0.00129947
0.00212396
0.00110842
0.000830107
0.00156944
0.00150256
0.000924496
0.00181406
0.00105094
0.00103334
0.00138689
0.00105094
0.00102455
0.00102986
0.000891163
0.00177357
0.000899328
0.00127147
0.00125825
0.00141913
0.000925631
0.000867061
0.000613232
0.00101279
0.00124359
0.00119881
0.00104808
0.00107262
0.000930218
0.00138753
0.00178567
0.00116836
0.00146708
0.00079303
0.000900068
0.0017321
0.00184007
0.000965058
0.00109203
0.000950419
0.00126062
0.00137082
0.0011794
0.00163078
0.00141576
0.00146205
0.00105184
0.000722784
0.00173932
0.00140502
0.00109
0.00187812
0.00121163
0.00110238
0.00193668
0.000971563
0.00137063
0.00128724
0.00119603
0.00100249
0.00141151
0.00127834
0.00170084
0.0015684
0.000898406
0.00137867
0.00102693
0.00143033
0.00103068
0.00199443
0.00142989
0.0015978
0.00138231
0.00152407
0.00107314
0.00118536
0.00106958
0.00136302
0.00119578
0.000934482
0.00121985
0.00136552
0.000863925
0.00107593
0.00122144
0.00144369
0.00140639
0.0013221
0.00132909
0.00119349
0.00120399
0.000945003
0.00136024
0.000845457
0.00115328
0.00128965
0.00120966
0.00187244
0.00134482
0.00141913
0.00128605
0.0011035
0.00127783
0.00115293
0.000993025
0.0015214
0.00162065
0.00131493
0.00202641
0.00135096
0.00135609
0.00127236
0.00110307
0.00135016
0.000989143
0.00142273
0.00161238
0.00133721
0.00128951
0.00106885
0.0014932
0.0014992
0.000768781
0.00194527
0.00175027
0.00167221
0.000929461
0.00131051
0.00115165
0.00137466
0.00169495
0.00145067
0.00111586
0.00103851
0.00132736
0.000925179
0.00125468
0.00129542
0.00144259
0.00179483
0.00159139
0.00135929
0.00108947
0.00106013
0.000937246
0.00145747
0.00136505
0.00102761
0.000642092
0.00145876
0.00135774
0.00203242
0.00122073
0.00118542
0.000763431
0.00112943
0.0015316
0.00111833
0.0016157
0.000968201
0.00126181
0.00124514
0.00138204
0.000901088
0.00131276
0.00186917
0.000983431
0.000947029
0.00136112
0.00152351
0.00120154
0.0013495
0.00093593
0.000996494
0.00151081
0.00162905
0.00150018
0.0018627
0.00200424
0.000951689
0.00124909
0.00110797
0.00147262
0.00135222
0.0016933
0.00151819
0.0014084
0.00163447
0.00177727
0.00141309
0.0022545
0.00170326
0.0015691
0.0015229
0.00095341
0.0010697
0.00111162
0.00127427
0.00108973
0.00103419
0.00113883
0.00144708
0.00129553
0.00136002
0.00120571
0.0021267
0.0011154
0.00119464
0.0016744
0.00170458
0.00148382
0.00156693
0.00161479
0.00163432
0.00170214
0.00121293
0.00164029
0.00138229
0.0013106
0.00102748
0.00133021
0.00116133
0.00115544
0.00171153
0.00117778
0.00105986
0.00160107
0.00213567
0.00153895
0.00121775
0.00139504
0.000840671
0.00105451
0.000892934
0.000913177
0.000708303
0.00154455
0.00157458
0.00103172
0.000987125
0.000708676
0.00147191
0.0020298
0.000925361
0.00132498
0.00155323
0.000996856
0.00114372
0.00133403
0.00147751
0.00150644
0.00153637
0.00135853
0.00100715
0.00227381
0.00127536
0.00159888
0.00162612
0.00109049
0.00194421
0.00107618
0.0013728
0.00125704
0.000859415
0.000784223
0.00124081
0.00145343
0.00127322
0.000827141
0.0013866
0.000962938
0.0013526
0.000845095
0.00101493
0.00131579
0.00157125
0.00136991
0.00165356
0.00155359
0.00135458
0.0010667
0.00130093
0.00148468
0.00086853
0.00161684
0.00119776
0.000688907
0.00122313
0.00103624
0.0020791
0.00106984
0.00148056
0.00128405
0.00114127
0.00142202
0.00165201
0.0015393
0.00129386
0.00147338
0.00143149
0.00114151
0.00123642
0.00128336
0.000871441
0.00128307
0.000955978
0.00129972
0.00121417
0.00153754
0.0013769
0.00123606
0.0015706
0.00179474
0.00176277
0.00149756
0.00172256
0.00118589
0.0015367
0.000883225
0.00109185
0.00101946
0.00152299
0.000917606
0.000885435
0.00122263
0.00222752
0.00111793
0.00101522
0.00119985
0.00120518
0.00074756
0.00162562
0.00111085
0.00145929
0.00131361
0.00133221
0.001154
0.00137573
0.00148471
0.00176353
0.00174385
0.00127873
0.00109799
0.000890783
0.00193603
0.00107401
0.000980888
0.000988491
0.00114022
0.00108894
0.00189277
0.00118758
0.00110878
0.00110452
0.0016691
0.00125568
0.00127926
0.00103363
0.000919616
0.00144635
0.00112297
0.00138681
0.00150256
0.0013476
0.000838335
0.00149644
0.00116697
0.000862033
0.00147791
0.00136487
0.00171332
0.00161601
0.00124871
0.00136508
0.00105899
0.00161059
0.000644759
0.00100526
0.000953576
0.00167795
0.00159895
0.000963296
0.000986934
0.00150185
0.00145642
0.00183903
0.00200383
0.0011967
0.00124739
0.00096602
0.000848041
0.00135179
0.00154222
0.00112592
0.00158283
0.00142201
0.00123962
0.000921665
0.000975
0.0013712
0.0010755
0.000956821
0.00162356
0.00144536
0.00114052
0.0021134
0.00178128
0.00106839
0.00107755
0.0013718
0.0011389
0.00134991
0.00168347
0.00157054
0.00120073
0.00139047
0.000880879
0.00132634
0.00174368
0.00168351
0.00116212
0.00166034
0.00152816
0.00207214
0.00642619
0.00147189
0.0013664
0.00134068
0.0013862
0.0015166
0.00141923
0.00138922
0.00131943
0.00135134
0.00188442
0.00115566
0.00141209
0.00143962
0.00153049
0.0010042
0.00108367
0.00150781
0.00118483
0.000802751
0.00114826
0.00219004
0.00140789
0.00078813
0.00125859
0.00121267
0.00107268
0.00162754
0.00104644
0.00142164
0.00179892
0.00181371
0.000983068
0.00152601
0.0016085
0.00154191
0.00145133
0.0014085
0.00164476
0.000954354
0.00100001
0.00101064
0.00141181
0.00129287
0.000907314
0.00154152
0.00129854
0.000916092
0.000853629
0.00134507
0.00113539
0.00156902
0.000845001
0.00116705
0.000925479
0.000814648
0.00132335
0.00110652
0.00163157
0.00152018
0.00152534
0.00151046
0.000930886
0.00092338
0.00111389
0.00122269
0.00130338
0.00109547
0.00161955
0.00120202
0.00116743
0.00140901
0.00134416
0.000866785
0.00150086
0.00121627
0.00140208
0.00140268
0.000820754
0.0012724
0.00208738
0.00146312
0.000960425
0.000782247
0.00086199
0.00158202
0.00147322
0.00142772
0.00127478
0.00135971
0.00131633
0.000957671
0.00136045
0.00157547
0.00125968
0.00157065
0.00125887
0.00148209
0.00139519
0.00154036
0.00185192
0.00116806
0.001805
0.00114838
0.00152454
0.000991022
0.00104393
0.00167289
0.00123789
0.00129762
0.00123779
0.00124678
0.0012688
0.00118852
0.00146821
0.00124952
0.000980997
0.00129565
0.00115981
0.00159897
0.00125103
0.00146722
0.001347
0.00130637
0.00138892
0.00184924
0.00132352
0.00176152
0.00167232
0.00142148
0.00115821
0.00190511
0.00182931
0.00123665
0.00120391
0.00124628
0.0013342
0.00129614
0.00164792
0.0015259
0.00105343
0.00112454
0.00108065
0.00161858
0.00114616
0.00141024
0.00159733
0.00113582
0.00157128
0.00134052
0.00103844
0.001273
0.00138641
0.00128433
0.00115025
0.00115494
0.00146643
0.00105759
0.00125132
0.00120644
0.00103943
0.00104308
0.00119767
0.00104865
0.000938809
0.00153074
0.00147703
0.00111716
0.00121602
0.000976951
0.00128129
0.0013242
0.00134308
0.00114768
0.00135955
0.00097329
0.00108003
0.00128606
0.00117306
0.00139203
0.00116514
0.00150927
0.00127916
0.00145336
0.00105445
0.00114475
0.000889378
0.00142989
0.00174818
0.00122387
0.00182643
0.00177765
0.00171233
0.00115788
0.00132314
0.00152022
0.00106877
0.00138328
0.00126297
0.00220897
0.00172854
0.0016482
0.00140085
0.00142306
0.00136964
0.0015224
0.00105872
0.00146881
0.00112679
0.00158521
0.00472399
0.00816662
0.00619442
0.00766443
0.0108731
0.00758863
0.00742518
0.00821474
0.00507576
0.00669387
0.00936899
0.00634003
0.00500402
0.00595025
0.00974532
0.0131239
0.00879015
0.0152485
0.0144514
0.00854545
0.0107777
0.00261233
0.00510292
0.00434867
0.00988789
0.00929713
0.0100213
0.00500437
0.00509313
0.00814837
0.00981369
0.00971788
0.0120462
0.0106911
0.00847258
0.00965184
0.00863142
0.00336387
0.00879587
0.0119814
0.00578336
0.00781119
0.00484542
0.00697416
0.00429962
0.0052163
0.0117639
0.00837551
0.00790245
0.0074407
0.007765
0.00707688
0.0098713
0.00483281
0.0123548
0.00656676
0.00679612
0.0046132
0.0105855
0.0109137
0.00491383
0.0050778
0.0126283
0.00404756
0.00447039
0.00158019
0.00898378
0.0127752
0.00838695
0.011398
0.0056329
0.00761897
0.00866204
0.00826439
0.00865617
0.00726686
0.00749075
0.0125141
0.0149312
0.00208726
0.0054832
0.00957214
0.00787084
0.00434552
0.00436014
0.00248089
0.00243403
0.00871644
0.00651125
0.0105919
0.00469934
0.00668168
0.00422898
0.00944575
0.013701
0.00205808
0.00894396
0.00176457
0.00270704
0.00923055
0.0128655
0.00696393
0.00780905
0.00711771
0.012625
0.00335091
0.00292795
0.0104266
0.0094433
0.00759118
0.00250301
0.00547172
0.00396293
0.00625746
0.00227317
0.00338313
0.00515481
0.00556491
0.0104974
0.00712071
0.00783575
0.00299837
0.00530332
0.013492
0.00561046
0.00459729
0.00423561
0.00590875
0.010097
0.0100103
0.00986661
0.0073743
0.00638499
0.00223026
0.00796854
0.002122
0.00857533
0.00428754
0.00444077
0.00743463
0.00712042
0.00485405
0.00882582
0.00372298
0.0107336
0.01045
0.0100442
0.00977311
0.00938815
0.00329141
0.00909148
0.00915773
0.00281314
0.0063346
0.005343
0.0121724
0.0104515
0.00945785
0.00533486
0.0053021
0.00510106
0.00656135
0.00624013
0.00905582
0.00211328
0.00438523
0.0161092
0.00741743
0.0022502
0.00593361
0.0052643
0.00815776
0.00726614
0.00381186
0.00611926
0.00819413
0.00504148
0.00750542
0.00152564
0.00901361
0.00269228
0.0103898
0.00643292
0.00763086
0.00342399
0.00511986
0.007244
0.00545606
0.00438597
0.00831542
0.00277858
0.00843312
0.00816794
0.00602917
0.002428
0.00888327
0.00988266
0.00756934
0.00177123
0.0021843
0.00635968
0.0124617
0.00462339
0.00216309
0.00248236
0.00905939
0.00305204
0.00653945
0.0110868
0.00190859
0.00882138
0.00601777
0.0102157
0.00762873
0.0063698
0.00198603
0.00319754
0.0072917
0.00600378
0.00588795
0.00504994
0.00238919
0.00675155
0.00691226
0.00853897
0.00211584
0.0117494
0.0065574
0.00166391
0.00171642
0.00863725
0.0116238
0.00992051
0.00411188
0.00363131
0.00609315
0.00378245
0.00167223
0.00521849
0.00868207
0.0129887
0.00933763
0.00529358
0.006334
0.00645425
0.0078372
0.00549956
0.00969642
0.011083
0.0078876
0.00654351
0.00964828
0.00972939
0.0080833
0.00634342
0.00332088
0.00720561
0.0127479
0.0096869
0.00179149
0.00655134
0.00719717
0.00953636
0.00737908
0.00166926
0.0119836
0.00399597
0.00444027
0.0132783
0.00430463
0.00311471
0.00929826
0.00342494
0.00733459
0.011122
0.0140794
0.00651335
0.00692011
0.0111588
0.00547726
0.00632635
0.0089283
0.00866252
0.0076448
0.00725478
0.00455137
0.0176535
0.0141316
0.0027203
0.00876004
0.0057008
0.00748889
0.00415722
0.00387743
0.0131201
0.012806
0.00674234
0.00699497
0.00459868
0.01166
0.0066091
0.0160104
0.0110856
0.0125523
0.0134342
0.00726446
0.00687602
0.00509154
0.015319
0.0092005
0.00550035
0.0067243
0.0109796
0.00649155
0.00837166
0.0105929
0.0131425
0.00671131
0.00490242
0.00756734
0.00810598
0.00508421
0.00481607
0.00765974
0.00792426
0.0105921
0.00579481
0.00370442
0.0096762
0.0120244
0.0128897
0.00619446
0.00476568
0.00338803
0.00508082
0.00543562
0.00211763
0.0104364
0.0105871
0.0106457
0.0112245
0.0086566
0.0114003
0.00732504
0.00708526
0.0102653
0.00703237
0.0121623
0.00572493
0.00247279
0.00393144
0.00155028
0.00621162
0.0141486
0.0136544
0.00472025
0.00566966
0.0170903
0.00221588
0.00807633
0.0122982
0.00156485
0.00827529
0.00476752
0.00604804
0.00448274
0.0024586
0.00562044
0.00717923
0.00184361
0.00433653
0.00990225
0.0057074
0.0091004
0.00701628
0.00682034
0.015487
0.00892929
0.00388956
0.0113141
0.0163485
0.00802412
0.00856041
0.00602858
0.00489599
0.00457939
0.00741051
0.00546488
0.00201519
0.0129807
0.0131299
0.00859713
0.00759176
0.00243796
0.00343654
0.00878723
0.0129001
0.00317309
0.00488537
0.00830835
0.0102
0.0061387
0.00712717
0.00575587
0.00630293
0.00346929
0.00646156
0.0104092
0.00459045
0.00453453
0.00670599
0.00881349
0.00173231
0.00205673
0.00299081
0.00188605
0.00616021
0.0124554
0.00623595
0.0108073
0.00382162
0.00901755
0.00709612
0.00221811
0.0105374
0.00649305
0.00604561
0.00518407
0.0070872
0.0079361
0.0088005
0.00893072
0.00176446
0.00751224
0.0060497
0.00299279
0.00403578
0.0115914
0.00878682
0.00317336
0.0027711
0.00444415
0.00963376
0.0117661