/*--------------------------------*- C++ -*----------------------------------*\
| =========                 |                                                 |
| \\      /  F ield         | OpenFOAM: The Open Source CFD Toolbox           |
|  \\    /   O peration     | Version:  2212                                  |
|   \\  /    A nd           | Website:  www.openfoam.com                      |
|    \\/     M anipulation  |                                                 |
\*---------------------------------------------------------------------------*/
FoamFile
{
    version     2.0;
    format      ascii;
    arch        "LSB;label=32;scalar=64";
    class       volScalarField;
    location    "10";
    object      p;
}
// * * * * * * * * * * * * * * * * * * * * * * * * * * * * * * * * * * * * * //

dimensions      [0 2 -2 0 0 0 0];

internalField   nonuniform List<scalar> 
76965
(
-1127.47
-837.536
-1090.31
-335.68
-919.27
-108.751
-931.593
-88.5617
-775.127
-700.292
-793.137
-797.211
-709.475
-681.138
-604.468
-818.837
-969.164
-821.672
-820.525
-826.665
-966.249
-39.6742
-52.9887
-59.4578
-803.342
-812.361
-990.616
-540.408
-542.151
-837.776
-132.911
-957.404
-958.561
-707.574
-774.065
-795.158
-805.542
-34.6013
-796.369
-801.502
-55.385
-970.132
-478.696
-472.147
-988.111
-995.338
-957.686
-949.696
-970.914
-714.224
-787.95
-681.621
-277.221
-566.312
-922.682
-722.139
-535.845
-537.205
-897.837
-871.928
-997.845
-988.129
-992.981
-1031.59
-349.985
-1037.32
-645.843
-926.729
-818.618
-753.138
-746.297
-150.529
-762.203
-395.4
-973.346
-977.119
-676.424
-800.116
-817.753
-127.755
-979.849
-737.571
-296.302
33.0975
-73.5186
-71.7161
-274.98
-302.872
-357.614
-288.166
-27.4725
-1014.2
-368.126
-106.196
-921.278
-56.6402
-319.184
-100.707
-95.7887
-157.013
-880.861
-802.817
-487.252
-1062.79
-904.838
-158.42
-176.248
-720.582
-302.47
-826.98
-130.206
-956.996
-580.483
-1105.12
-94.2506
-360.94
-786.977
-871.563
-748.922
-478.802
-458.308
-18.9996
-744.619
-929.79
-565.466
-754.393
-1012.46
-871.475
46.8154
-1012.53
-992.277
-817.314
-370.964
-125.667
-938.96
-89.4318
-971.594
-573.653
-552.533
-558.953
-999.153
-579.909
-628.684
-64.9149
-789.595
-858.649
-852.724
-1014.23
-946.29
-816.706
-933.184
-1019.92
-5.8889
-1061.7
-1113.8
-807.445
-807.523
-274.919
-18.6126
-631.233
-352.239
-510.335
-543.108
-768.821
-83.4279
-975.327
-784.432
-572.06
-17.1859
-944.77
-975.397
-999.183
-991.498
-1047.98
-748.528
-830.055
-533.113
-757.103
-1041.56
-413.354
-288.302
-814.522
-659.768
-577.279
-523.712
-485.31
-667.313
-595.737
-697.823
40.4868
-318.699
-143.371
-134.829
-523.466
-1043.01
-395.982
-618.986
-1000.83
-20.5444
-1045.36
-930.035
-914.641
-582.822
-17.9614
-1058.67
-744.441
-1063.65
-750.665
-735.438
-19.4106
-871.592
-704.872
-849.235
-865.864
-759.583
-115.102
-1024.29
-766.376
-761.63
-717.732
-101.798
-1072.35
-741.994
-729.009
-93.9465
-137.387
-792.558
-794.568
-59.5615
-23.6663
-1016.82
-928.656
-244.084
-77.8091
-94.9529
-61.5365
-106.568
-1036.88
-971.237
-602.622
-924.164
-951.696
-794.905
-1038.55
-784.057
-860.909
-820.75
-881.159
-853.769
-796.849
-788.372
-1005.47
-956.92
-964.504
-786.477
-975.558
-665.983
-815.643
-608.453
-1054.8
-944.637
-1026.69
-640.604
-948.787
-71.717
-951.096
-822.646
-1027.1
-973.148
-826.17
-1071.79
-1066.37
-1052.86
-740.049
-806.934
-830.756
-501.902
-816.311
-901.975
-798.731
-797.329
-792.144
-793.198
-300.403
-318.837
-620.574
-819.616
-817.627
-1014.14
-972.308
-944.322
-932.524
-949.636
-971.167
-897.611
-908.596
-945.94
-966.363
-1071.34
-824.76
-182.699
-828.582
-885.47
-924.845
-924.426
13.6527
-722.07
-958.549
-882.779
-774.184
-1019.3
-1018.07
-614.885
-168.564
-864.177
-870.472
-843.946
-773.35
-831.483
-816.389
-805.889
-830.484
-820.306
-804.328
-826.11
-992.25
-74.3747
-76.684
-584.325
-896.295
-934.058
-166.249
-1084.35
-1056.59
-1098.49
-1064.25
-11.2863
-427.217
-972.796
-966.807
-101.384
-90.6371
-809.923
-1032.94
-778.207
-804.527
-798.663
-921.003
-585.028
-30.8585
-93.7034
16.362
-555.98
-883.073
-869.176
-150.34
-933.431
-808.517
-183.471
-851.325
-894.047
-26.5251
-606.722
-802.787
-801.331
-806.375
-1071.21
-810.965
-754.078
-22.6754
-1003.81
-591.814
-804.707
-801.044
-793.967
-811.383
-775.178
-746.086
-739.476
-815.114
-815.375
-813.111
-261.102
-598.358
-117.927
16.0507
-418.643
-472.508
-1020.38
-678.004
-839.38
-895.861
-765.402
-10.7825
-985.139
-874.267
-888.048
-314.481
-16.332
-548.595
-576.908
-622.25
-718.967
-686.916
-591.642
-1087.07
-831.449
-387.68
-5.37559
-846.245
-789.721
-772.376
-68.1023
-65.7829
-71.5166
-93.0436
-584.406
-776.965
-616.011
-778.797
-1036.91
-748.264
-810.868
-15.8953
-945.843
-751.198
-268.684
-701.971
-684.153
-688.645
-655.586
-689.019
-85.3012
-788.723
-764.682
32.9303
-292.483
-854.282
-788.542
-251.202
-1053.65
-928.754
-883.787
-772.632
-824.399
-817.211
-752.82
-1045.01
-465.512
-62.0834
-116.058
-744.47
-955.627
-52.1199
-825.379
-840.141
-540.559
-29.002
-534.092
-519.731
-668.665
-790.282
-852.218
-131.042
-995.722
-1007.53
-114.558
-130.904
-670.162
18.1817
-1027.51
-32.5666
-1051.82
-49.667
-1056.08
-962.878
-65.7662
-843.203
-1035.53
-849.423
-59.7183
-502.681
-496.267
-9.68506
-734.843
-458.551
-836.718
-662.167
-540.979
-745.47
-49.2518
-544.731
-583.458
-126.73
-102.52
-1055.01
-849.043
-652.66
-304.034
-658.304
-54.841
-1023.5
13.9817
-1030.32
-942.913
-770.72
-739.694
-844.831
-758.438
-745.727
-763.112
-776.323
-699.244
-49.7051
-65.0657
-42.9546
-997.894
-866.904
-860.366
-85.5316
-644.719
-937.029
-1013.67
-91.3941
-454.19
-111.1
-55.1041
-827.301
-676.593
-793.104
-142.696
-358.936
-611.303
-1008.29
-894.499
-104.786
-1059.67
-917.569
-939.154
-1033.5
-681.361
-983.29
-50.3965
-901.523
-818.153
-812.753
-790.178
-644.567
-929.688
-934.539
-790.725
-98.8592
-716.253
-87.2339
-685.742
-275.99
-679.381
-946.283
-35.4025
-74.8584
-481.81
-878.363
-741.985
-19.1202
-797.478
-557.386
-694.068
-810.553
-631.28
-882.589
-129.796
-126.404
-146.059
-1066.68
-196.67
-763.397
-1107.1
-710.384
-558.955
-1004.51
-17.7923
-975.789
22.46
-999.741
-35.4175
-1089.63
-967.715
-1059.68
-858.692
-298.801
-826.891
13.2114
-680.678
-717.86
-844.946
-43.8527
-283.574
-758.631
-795.337
-1066.52
-981.994
-936.701
-864.079
-96.1243
-989.643
-821.011
-840.104
-19.9479
-63.9654
-14.3711
-94.1847
-358.332
-399.646
-841.392
-964.803
-106.145
-860.862
-960.3
-302.867
-890.103
-808.717
-79.8751
-120.657
-103.875
19.689
-14.9553
-1039.78
-349.762
-464.435
-483.964
-527.906
-776.743
-855.724
-782.548
-807.901
-15.1164
-1022.57
-130.025
-144.399
-1110.14
-106.642
-101.448
-825.089
-1116.69
-27.301
-1027.18
-70.7146
-784.906
-684.414
-942.243
-941.95
-967.532
-860.088
-879.519
-909.191
-948.627
-609.329
-606.025
-1018.51
-667.491
-111.518
-815.346
-789.345
-819.937
-1024.3
-227.104
-467.832
-375.621
-637.585
-654.086
-22.035
-351.043
-322.46
-837.052
-277.127
-767.432
-660.561
-216.757
-502.438
33.5636
-709.692
-856.783
-766.833
-81.2844
-1020.41
-913.015
-758.115
-800.656
-833.512
-835.98
-1019.11
-859.251
-692.275
-936.433
-568.307
-1032.42
-44.8906
-1041.09
-764.215
-956.75
-62.9774
-821.635
-829.302
-754.29
-988.6
-894.864
-876.342
-1035.57
-82.9878
-815.085
-938.355
-812.987
-353.162
-847.346
-342.458
-1050.02
-1041.5
-915.82
-872.292
-942.905
47.7784
-733.004
-816.181
-655.907
-97.2052
-483.415
-172.434
-707.435
-557.853
-944.929
-950.282
-1087.57
-825.593
-321.394
-729.479
-788.848
-640.324
-94.4072
-19.0611
-374.052
-107.888
-851.91
-571.775
-856.709
-904.533
-19.0584
-912.093
-938.303
-746.701
-11.8846
-605.244
-747.876
-834.074
-821.346
-333.905
-833.464
-58.2514
-700.781
-1022.96
-1058.59
21.0804
-1109.24
-22.3217
-642.8
-646.232
-1045.54
-1052.91
-439.69
-265.347
42.1192
-675.134
-903.095
-797.004
-503.002
-510.327
-82.364
-525.528
-846.645
-1063.13
-1039.49
-1023.46
-680.761
-67.3589
-731.012
-639.403
-873.821
-1060.59
-553.544
-31.165
-1074.62
-964.217
-967.655
-817.967
-875.205
-1008.97
-792.137
-762.328
-832.513
-21.9955
-943.789
-945.029
-851.8
-675.415
-872.817
-710.782
-453.941
-452.961
-632.784
-873.073
-911.197
-886.689
-134.395
-1032.97
-331.191
-965.27
-722.185
-739.352
-649.817
-872.894
-855.491
-835.871
-829.52
-834.168
-645.174
-960.394
-821.202
-434.014
-99.2162
-383.024
-83.0697
-824.25
-819.984
-127.61
-320.937
-374.229
-709.458
-60.398
-103.209
-825.173
-84.9661
-951.007
-1088.58
-1079.62
-635.061
-815.256
-963.42
-835.342
-828.904
-828.789
-213.548
-884.168
-1028.88
-812.363
-822.249
-894.544
-402.026
-306.24
-1026.88
-579.741
-265.536
-800.205
-144.481
-49.1952
-109.27
-386.457
-434.701
-961.348
-851.188
-531.78
-116.456
-822.028
-38.9611
-872.765
-722.94
-847.284
-925.523
-426.58
-406.205
-655.922
-649.921
-500.609
-104.196
4.99295
-532.494
-812.825
-165.058
2.575
2.43954
-103.421
-94.5719
-821.205
-490.923
-143.444
-59.9842
-103.22
-876.089
-549.633
-564.912
-925.548
-1053.86
-119.671
-494.551
-942.867
-923.673
-352.205
-343.448
-724.647
-393.69
-341.868
-628.738
-656.136
-666.752
-587.612
-801.362
-155.277
-628.718
-540.086
-115.897
-400.076
-844.2
-112.184
-800.746
-59.7316
-631.325
-856.299
-803.47
-812.255
-779.633
-52.7333
-997.388
-459.219
-1084.17
-336.55
-327.076
-947
-1072.69
-52.1647
-1037.14
-22.5615
-780.838
-167.883
-835.912
-775.771
-52.7843
-116.436
-87.7764
-877.918
-130.063
-201.111
-562.453
-55.7618
-954.674
-861.337
-831.927
-627.697
-1062.95
-722.864
-464.792
-1049.35
-128.806
-1049.39
-897.381
-815.636
-525.826
-66.0199
-64.1194
9.73494
-681.266
-788.042
-94.7897
-398.725
-689.939
-923.783
-45.2929
-73.5145
-671.755
-658.555
-976.204
-982.634
-748.855
-1069.07
-598.32
-943.381
-103.498
-160.463
-104.703
-550.108
-848.403
-682.508
-805.749
-802.863
-862.02
-284.88
-322.752
-23.7289
-782.465
-733.309
-845.091
-1013.99
-965.227
-292.528
-781.18
-161.605
-659.253
-820.938
-767.554
-667.336
-174.732
-126.282
-867.594
-424.95
-831.881
-568.86
-616.698
-616.156
-0.677129
-109.241
-808.958
-324.212
3.32953
-799.279
29.4865
-1001.01
-971.415
-844.881
-546.21
-787.432
-845.058
-838.776
-100.405
-819.272
-1083.21
-173.393
-766.908
-138.971
-906.197
5.74991
-12.0812
-582.992
-636.011
-757.516
-151.102
-107.258
-913.006
-812.617
-140.295
-708.981
-837.976
-1050.35
-953.582
-28.0258
-970.225
45.137
-539.523
-749.336
-839.91
-959.09
-770.041
-875.251
-820.778
-29.2177
-38.3293
-39.49
-1061.41
-648.212
-634.607
-1024.84
-808.291
-86.002
-988.909
-1011.32
-981.572
-981.637
-820.723
-726.896
-650.395
-858.082
-83.9167
-94.9385
-297.092
-972.266
-992.527
-648.789
-833.866
-861.147
-817.624
-1049.97
-797.731
-863.54
-717.612
-939.947
-333.797
-358.926
-373.902
-415.379
46.4155
10.2075
-569.137
-571.49
-637.909
-45.8866
-383.369
-5.6838
-82.3998
-844.626
-700.882
-772.082
-674.11
-353.496
-761.095
-33.6858
-459.485
-415.686
-689.112
-149.397
27.4435
-935.967
-839.02
-733.119
-1049.63
-547.912
-555.57
-87.8012
-978.796
-627.72
-506.46
-557.316
-1005.86
-740.511
-992.57
-414.187
-91.3929
-63.2629
-1027.84
-33.1804
-44.4237
-343.166
-807.071
-746.617
-37.3403
-878.279
-938.564
-296.886
-165.389
-819.224
-363.513
-379.956
-74.2767
-366.691
-788.85
-106.488
-165.926
-140.733
-166.085
-7.10657
-840.512
-598.302
-861.515
-837.51
-1028.23
-557.266
-2.86277
-1079.43
-748.035
-816.817
-970.576
-417.494
-195.422
-772.88
-77.4225
-117.593
-1047.77
-15.2857
-706.856
-509.128
-249.629
-145.174
-484.01
-1066.48
4.64295
-962.404
-527.125
-660.382
-818.505
-241.053
2.54949
-688.011
-74.2859
-1036.43
-1033.61
-69.5907
-1059.31
-113.952
-686.24
-392.147
1.56981
-540.151
-342.765
-853.472
-34.3517
-869.849
-786.127
38.2582
-701.946
-368.292
-857.872
-915.294
-97.4718
-84.4905
-725.277
-639.144
-801.734
-770.989
-1047.79
-1065.61
-49.0613
-835.018
-827.096
-811.969
-862.684
-646.155
-48.0209
-681.814
-1020.38
-763.655
-109.251
-144.89
-840.995
-794.915
-1040.01
-1043.28
-1022.66
42.3977
-688.912
-765.545
-1033.35
-1033.98
-763.288
-911.777
-575.97
-540.919
-22.5174
-630.085
-73.3759
-75.3485
-103.585
-1005.99
-774.323
-1049.79
-566.301
-903.906
-789.889
-560.605
-489.888
-483.409
-468.523
-880.382
-1108.32
-443.848
-784.188
-531.258
-176.596
-87.6217
-62.719
-631.68
-146.727
-1029.79
-20.9711
-21.5241
-630.578
-87.5531
-732.745
-806.654
-658.037
-628.983
-158.74
-625.13
-626.549
-632.848
-801.912
-665.912
-717.042
-638.827
-656.471
-92.4979
-542.957
-78.0103
-836.751
-648.101
-486.796
-266.54
-2.47223
-6.30533
-391.475
-626.351
-819.607
-454.741
-819.867
-811.063
-645.276
-822.861
-802.402
-756.172
-96.2073
-791.011
-65.4767
-76.7029
-830.314
-1053.33
-862.134
-403.383
-739.987
-676.29
-537.859
-114.47
-250.145
-927.153
-950.658
49.4673
-434.502
-13.0449
-973.666
-192.449
-185.459
-807.664
-984.411
-301.486
-909.036
-186.293
-106.51
-826.408
-729.809
-293.309
-44.692
-746.604
-250.491
-125.376
-711.054
-382.01
-732.665
-679.672
-412.616
-381.47
-1045.86
-229.511
-815.735
-724.122
-574.591
-150.425
-854.723
-646.863
-929.872
-858.264
-369.093
-842.13
-22.2135
-454.738
-729.128
-888.963
-542.942
-973.614
-918.55
-19.9242
-20.8559
-815.553
-830.158
-935.262
-717.577
-760.414
-542.786
-97.2646
-816.416
-118.741
-49.4394
-870.236
-693.268
-862.802
-1057.93
-910.852
-818.379
-427.262
-724.762
-933.241
-836.814
-515.505
-142.738
-103.043
-225.248
-85.8777
-33.3873
-28.0772
-1065.01
-966.22
-874.633
-73.0915
-188.742
-801.565
-638.878
-826.359
-995.816
-1040.56
-72.9848
-960.834
-1086.84
55.6996
-633.422
-300.863
-965.731
-70.2378
-1046.99
-655.387
-813.7
-810.143
-1026.31
-82.6376
-804.304
-827.638
-1044.62
-354.068
-554.961
-821.391
-108.641
-138.199
-780.363
-791.344
-278.53
-284.112
-812.887
-1069.22
-1072.07
-150.133
-89.1314
-814.658
-814.575
-65.8825
-969.842
-840.336
-606.85
-188.095
-328.833
-1001.38
-1041.01
-856.485
-866.301
-845.286
-911.928
-252.509
-231.25
-906.688
-862.903
-1117.9
-414.746
-956.561
-833.132
-1052.32
-551.513
-902.892
-884.265
-350.373
-589.491
-865.416
-858.404
3.38707
-228.95
-273.965
-110.9
-393.451
-837.019
-554.791
-790.957
-941.436
-234.451
-835.942
-878.406
-800.883
-110.641
-628.955
-638.496
-456.165
-697.594
-951.999
-943.724
-980.746
-841.444
-686.79
-805.914
-980.466
-74.2635
-130.598
-798.796
-751.708
-685.19
-936.582
-1059.12
-248.954
-1126.4
-727.716
-638.523
-284.383
-437.479
-528.651
-305.932
-1041.39
-790.934
-1051.11
-103.934
-124.431
-136.497
-1069.41
-373.331
-811.395
-781.072
-772.101
-1044.37
-683.714
-340.236
-781.962
-802.461
-1042.76
-20.4598
-48.7694
-704.971
-499.399
-1025.74
-1040.88
-66.2237
-483.151
-847.814
-128.22
-140.583
-587.264
-826.421
-812.369
-785.783
-897.338
-720.613
-820.115
-1039.43
-221.156
-214.207
-846.373
-320.058
-784.052
-892.566
-761.629
-953.564
-990.289
-1037.08
-829.795
-645.136
-813.241
-1029.03
-975.51
-724.824
-439.739
-115.431
-76.6081
-1118.93
-635.022
-576.573
-618.397
-635.917
-644.159
-785.606
-676.438
-1153.15
-846.366
-166.672
-118.435
-885.559
-888.99
14.502
-922.283
-671.567
-674.44
-389.883
-1032.02
-49.9915
-670.075
-1053.86
-952.233
-1043.21
-536.51
-575.594
-535.708
-33.2742
-6.34647
-795.774
-694.309
-1024.05
-682.57
-765.68
-125.126
-33.2086
-855.529
-996.263
-995.194
-846.184
-977.908
-957.582
-974.602
-856.924
-705.2
-852.228
-109.179
-638.306
-1020
-991.063
-482.303
-883.583
-683.635
-720.344
-57.1486
-877.192
-848.293
-1037.67
-785.845
-606.128
-789.455
-788.556
-251.223
-625.553
-624.397
-815.09
-132.795
-593.508
-880.638
-834.582
-639.232
-78.247
-633.424
-196.755
-425.416
-1023.98
-783.211
-622.624
-849.233
-654.4
-828.359
-1012.65
-704.693
-1010.18
-1009.36
-1028.39
-1050.48
-1008.52
-960.907
-1094.65
-827.932
-637.896
-862.646
-939.237
15.773
-976.803
-505.616
-462.855
-1033.5
-278.757
-14.5982
-114.234
-290.122
-257.404
-788.658
-760.956
-273.378
-302.061
-1040.63
-938.637
-366.069
-94.8202
-979.044
-822.741
-520.136
-821.365
-760.883
-1067.03
-127.672
-65.2703
-490.526
-152.199
-918.073
-531.978
-520.511
-641.799
-239.584
-791.807
-796.29
-55.897
-794.058
-827.21
-565.275
-1071.23
-667.269
-1053.51
-617.422
-851.4
-648.575
-966.901
-1032.95
-663.29
-1051.8
-77.0768
-57.3107
-862.167
-818.06
-830.706
-271.252
-231.75
-210.519
-656.252
-691.108
-523.139
-236.822
27.8468
-821.09
-885.285
-900.872
-686.454
-113.561
-129.33
-269.54
-663.037
-257.085
-562.853
-985.614
-753.721
-577.469
-787.633
-454.355
-659.296
-839.446
-501.512
-1044.53
-847.484
-861.385
-642.379
-928.746
-798.53
-863.605
-826.32
-965.244
-973.271
-838.844
-723.341
-1066.52
-822.738
-1029.51
-1085.3
-1025.15
-947.259
-936.259
-1033.84
-799.979
-843.267
-420.471
-802.162
-1003.85
-1014.65
-874.261
-1123.27
-1019.64
-1044.29
-904.528
-1061.53
-1026.57
-623.808
-660.072
-627.42
-829.516
-379.966
-831.734
-62.8221
-88.5251
-969.565
-993.581
-1008.28
-438.772
-496.357
-462.742
-496.765
-593.019
-829.504
-826.729
-353.141
-997.398
-552.354
-617.343
-638.207
-862.709
-569.841
-561.372
-926.196
-827.729
-980.366
-681.409
-389.702
-366.133
2.71348
9.65064
-40.7403
-18.4931
-855.133
-846.189
-1026.18
-1030.16
-36.758
-791.213
-784.532
-324.337
-1045.28
-883.716
-972.059
-113.334
-813.128
-98.7815
-116.776
-1021.62
-1015
-397.854
-841.149
-1035.41
-964.042
-954.907
-1038.03
-929.334
-62.7401
-264.173
-579.155
-15.8102
-8.21413
-699.568
-842.342
-815.565
-340.635
-602.33
-146.707
-660.144
-211.112
-229.665
-670.853
-1001.93
-996.75
-961.098
-989.261
-994.114
-989.742
-757.28
-359.572
-1044.06
-1022.31
-77.0197
-48.5958
-569.912
-141.166
-812.922
-1062.61
-1001.28
-502.663
-424.442
-890.139
-902.729
-1057.6
-519.416
-842.476
-481.625
-928.018
-938.515
-665.764
-60.5087
-773.399
-1060.61
-640.99
-323.259
-973.179
-617.044
-616.739
-819.943
-823.248
-820.335
-773.164
-321.841
-661.835
-984.673
-29.2971
-99.7752
-102.186
-983.779
-440.909
-334.007
-249.107
-896.668
-1013.34
-1046.71
-556.329
-214.238
-204.911
-962.422
-313.869
-291.539
-294.309
-656.909
-1046.26
-1029.18
-1068.31
-879.27
-900.079
-520.003
-660.357
-330.486
-835.631
-247.102
-339.864
-995.166
-1027.87
-198.431
-942
-1051.57
-1038.08
-1036.84
-1037.53
-589.124
-627.326
-863.669
-86.2068
-315.695
-983.766
-942.825
-940.093
-515.272
-370.991
-871.831
-264.718
-16.2647
-322.477
-360.532
-771.359
-919.717
-912.163
-945.742
-1032.33
-969.237
-220.431
-220.437
-1079.67
-810.626
-812.72
-431.737
-491.695
-463.381
-877.219
-817.003
-909.85
-659.547
-697.009
-117.83
-390.953
-128.769
-829.611
-312.106
-921.091
-642.755
-764.095
-437.09
-115.483
-681.334
-178.273
-191.374
-290.854
-952.55
-853.332
51.9425
-28.6271
-1105.98
-1074.46
-1004.46
-494.685
-809.402
-992.051
-1010.71
-1062.47
-656.58
-37.7248
-136.437
-986.546
-1018.9
-814.684
-800.715
-309.2
-23.5082
-245.999
-834.659
-824.488
-1015.28
-481.668
-962.524
-973.07
-878.898
-663.983
-836.115
-921.739
-1043.76
-838.434
-837.626
-1127.47
-112.899
-1064.72
-819.978
-999.412
-988.119
-393.254
-825.515
-536.02
-980.973
-337.501
-807.58
-839.427
-382.906
-382.696
-894.126
-849.642
-861.627
-622.914
-482.243
-561.923
-470.629
-485.935
-516.659
-876.6
-153.002
-153.046
-739.328
-890.064
-908.092
-1040.73
-448.557
-385.564
-437.082
-99.3974
-185.797
-410.8
-1010.58
-740.481
-756.735
-94.576
-101.417
-500.563
-1059.2
-993.507
-1044.09
-980.891
-635.744
-1034.58
-1035.83
-1043.87
-554.776
-196.194
-161.115
-977.215
-561.579
-580.289
-656.435
-663.819
-858.407
-479.104
-490.954
-464.584
-335.142
-28.4483
-117.203
-302.668
-593.104
-790.416
-793.587
-62.4591
-830.327
-599.772
-632.762
-198.212
-1030.01
-671.992
-165.389
-916.985
-624.673
-328.369
-519.76
-394.057
-183.36
-498.139
-943.639
-975.743
-927.712
-613.776
-998.31
-638.745
-784.511
-797.163
-919.178
-368.403
-665.555
-607.212
-625.863
-533.518
-1017.56
-393.609
-359.087
-375.472
-535.039
-563.84
-463.486
-833.914
-568.35
-627.384
-602.896
-478.632
-1022.97
-1035.18
-868.642
-875.22
-940.752
-402.08
-821.938
-833.453
-618.984
-1004.7
-998.652
-567.477
-533.351
-1121.1
-979.938
-1041.59
-1059.54
-989.32
-541.748
-634.622
-940.944
-722.647
-770.025
-892.895
-633.868
-151.49
-739.263
-507.802
-623.728
-631.377
-819.372
-937.224
-921.162
-464.761
-904.447
-315.931
-1013.71
-1018.54
-674.099
-338.106
-634.603
-960.603
-1063.09
-279.275
-671.364
-316.727
-331.461
-615.073
-1039.62
-954.034
-1001.68
-637.789
-419.334
-878.347
-990.856
-341.522
-882.102
-1004.35
-997.703
-348.987
-288.24
-342.779
-919.404
-887.004
-1023.7
-919.941
-941.828
-927.44
-627.01
-1160.43
-947.756
-1027.39
-1024.8
-409.319
-948.877
-949.456
-932.897
-912.269
-416.706
-524.224
-950.522
-351.599
-512.252
-421.4
-571.407
-1122.9
-841.464
-1087.92
-349.924
-913.495
-108.861
-922.418
-89.4327
-770.12
-701.771
-795.083
-797.691
-708.752
-660.546
-607.726
-820.455
-968.234
-822.748
-822.386
-828.064
-965.045
-39.1445
-53.2143
-59.6235
-805.691
-811.163
-989.726
-546.504
-540.857
-836.819
-132.964
-959.995
-961.626
-715.957
-773.707
-797.996
-805.61
-34.3068
-798.851
-802.251
-55.2087
-969.949
-484.221
-483.441
-979.838
-995.758
-957.577
-951.3
-970.55
-717.307
-787.799
-687.316
-276.718
-571.821
-921.446
-719.861
-535.113
-538.648
-901.574
-871.974
-996.121
-986.063
-993.169
-1031.64
-348.566
-1037.34
-617.218
-925.67
-821.37
-753.36
-734.258
-150.138
-766.752
-404.952
-972.638
-976.663
-679.225
-801.467
-817.8
-127.797
-979.836
-737.567
-299.637
31.8341
-73.9679
-72.0697
-274.787
-300.471
-354.76
-287.393
-27.5969
-1006.78
-362.244
-106.086
-920.981
-53.8444
-329.929
-100.662
-96.0659
-155.704
-881.455
-796.044
-487.347
-1061.31
-904.351
-158.793
-176.5
-721.426
-307.771
-826.887
-130.296
-947.651
-578.133
-1103.12
-92.6244
-358.495
-783.893
-873.515
-752.81
-480.398
-463.217
-19.2348
-740.416
-926.204
-573.481
-748.019
-1009.41
-872.639
44.6268
-1014.75
-993.145
-820.143
-367.512
-125.235
-937.993
-89.3171
-971.245
-578.711
-557.513
-564.48
-999.745
-576.84
-610.848
-64.4057
-792.444
-859.846
-854.082
-1014.35
-949.004
-811.935
-934.214
-1018.63
-5.84216
-1060.4
-1109.89
-807.64
-807.867
-274.668
-18.8493
-623.989
-347.812
-517.42
-546.54
-770.156
-83.2706
-972.044
-785.643
-565.689
-17.0844
-943.411
-974.15
-999.062
-990.353
-1048.73
-755.552
-832.17
-528.508
-761.796
-1041.58
-412.656
-289.045
-817.086
-654.477
-588.677
-515.846
-482.969
-666.107
-598.497
-694.107
37.5025
-311.709
-142.666
-133.98
-520.184
-1043.18
-393.845
-611.895
-996.944
-20.6473
-1045.42
-926.585
-912.776
-584.464
-18.0496
-1058.83
-747.868
-1063.74
-742.346
-735.7
-19.4308
-858.624
-711.199
-840.817
-852.082
-759.61
-115.107
-1021.29
-758.015
-757.654
-726.02
-101.204
-1071.17
-748.229
-733.94
-94.9024
-135.961
-792.739
-794.709
-59.6182
-23.7035
-1015.66
-927.189
-242.423
-78.4078
-94.5723
-60.578
-104.506
-1036.86
-972.221
-599.581
-926.798
-949.293
-791.086
-1039.26
-780.32
-862.398
-805.436
-882.059
-853.648
-797.051
-788.835
-1006.72
-959.718
-965.272
-781.283
-974.977
-656.889
-818.611
-621.091
-1054.8
-946.379
-1027.89
-632.28
-950.448
-71.7137
-952.057
-816.622
-1026.94
-974.356
-822.822
-1069.7
-1068.16
-1052.96
-744.378
-809.131
-831.955
-484.53
-813.436
-900.035
-794.349
-800.233
-795.128
-797.893
-311.72
-331.891
-616.795
-822.446
-821.07
-1014.03
-971.665
-945.287
-933.088
-952.411
-967.227
-897.61
-909.274
-948.381
-965.235
-1071.29
-827.36
-182.293
-831.162
-884.231
-923.561
-923.14
13.8859
-723.186
-960.41
-882.317
-779.463
-1020.19
-1018.66
-609.573
-168.045
-858.634
-860.008
-823.822
-776.171
-827.963
-823.191
-802.964
-835.418
-802.133
-802.208
-822.311
-991.699
-73.3497
-76.7108
-589.177
-894.659
-934.066
-166.008
-1083.93
-1056.51
-1097.26
-1064.22
-11.1944
-434.402
-973.013
-966.874
-102.008
-92.7714
-812.789
-1032.68
-780.15
-804.854
-796.51
-920.272
-583.629
-30.5358
-92.9494
16.2315
-563.653
-883.039
-868.788
-147.779
-887.882
-805.67
-183.456
-851.161
-892.424
-26.4356
-613.825
-803.926
-797.824
-804.983
-1071.26
-811.455
-764.912
-22.7823
-998.782
-603.331
-803.293
-795.966
-795.062
-800.906
-776.044
-739.956
-700.6
-817.645
-818.843
-806.124
-261.294
-603.16
-116.788
15.4922
-417.673
-469.641
-1020.42
-669.59
-829.277
-864.191
-770.591
-9.64689
-985.481
-874.943
-887.617
-312.498
-16.2632
-570.41
-589.894
-619.712
-719.198
-685.782
-590.929
-1085.49
-831.681
-406.268
-5.60312
-846.202
-786.653
-775.292
-68.0819
-65.9216
-71.4864
-93.0363
-584.253
-781.264
-614.535
-780.745
-1037.09
-747.66
-809.129
-15.8448
-947.704
-751.891
-269.912
-694.497
-681.611
-664.156
-654.852
-694.233
-85.2652
-787.287
-765.89
33.2691
-292.181
-855.094
-790.02
-251.425
-1053.82
-905.866
-876.76
-760.985
-805.761
-819.197
-753.311
-1045.81
-466.726
-61.6049
-115.172
-749.21
-957.149
-52.121
-824.367
-841.536
-528.078
-29.0435
-539.281
-526.177
-663.529
-791.504
-852.326
-128.8
-996.355
-1007.94
-113.821
-128.815
-677.719
17.073
-1027.5
-32.8892
-1051.81
-49.7474
-1055.48
-962.605
-68.5526
-844.49
-1035.54
-849.425
-59.3494
-510.764
-498.748
-9.48928
-737.188
-460.185
-837.271
-658.056
-518.718
-752.819
-49.2631
-551.494
-576.165
-126.087
-100.844
-1054.58
-843.538
-653.987
-304.168
-654.073
-55.1303
-1023.3
13.13
-1030.32
-941.947
-766.796
-742.6
-842.295
-762.025
-745.816
-765.374
-767.41
-695.878
-49.7438
-65.0727
-42.9702
-997.347
-870.262
-856.348
-85.5022
-644.338
-938.85
-1013.66
-91.9153
-450.562
-109.595
-55.0753
-830.95
-677.414
-789.546
-140.888
-363.595
-606.028
-1007.49
-894.383
-101.899
-1059.68
-916.783
-939.572
-1033.51
-678.121
-983.311
-52.0559
-887.883
-809.804
-814.311
-787.33
-639.406
-929.604
-936.908
-792.196
-99.8679
-715.984
-87.2253
-685.968
-276.439
-682.698
-945.809
-35.7486
-73.7763
-474.249
-869.893
-743.921
-19.1991
-798.332
-562.7
-696.294
-804.679
-641.498
-882.123
-129.845
-126.222
-144.996
-1066.66
-196.639
-762.87
-1104.56
-707.083
-557.446
-1004.49
-17.6857
-974.329
22.664
-999.077
-35.703
-1088.89
-967.654
-1059.87
-853.954
-297.461
-826.876
15.282
-680.684
-714.429
-838.155
-44.3178
-284.421
-749.757
-789.342
-1066.68
-980.064
-936.779
-864.078
-96.0061
-988.98
-819.973
-841.132
-21.07
-64.2252
-15.798
-93.7634
-358.388
-399.829
-841.842
-967.822
-105.741
-860.901
-961.547
-302.653
-889.341
-814.824
-79.0315
-120.319
-103.047
18.7422
-15.9709
-1040.19
-349.407
-459.287
-479.798
-530.332
-778.393
-835.298
-781.225
-806.741
-14.9688
-1022.58
-130.068
-144.398
-1107.69
-106.628
-101.69
-824.6
-1114.59
-27.8393
-1027.17
-69.5711
-785.452
-681.349
-941.277
-939.065
-966.205
-860.168
-879.995
-910.62
-951.691
-613.632
-604.794
-1018.81
-674.258
-111.069
-818.895
-783.883
-822.785
-1021.91
-226.997
-459.616
-373.323
-634.364
-644.666
-21.7814
-348.789
-322.175
-838.447
-276.573
-756.359
-663.974
-216.7
-491.392
31.6889
-709.627
-857.529
-764.512
-81.1878
-1018.54
-912.412
-760.34
-800.787
-833.367
-837.17
-1019.14
-855.451
-675.072
-936.298
-564.47
-1032.32
-44.7968
-1040.92
-768.273
-955.96
-62.9793
-823.389
-831.026
-755.474
-988.361
-893.937
-875.917
-1035.58
-83.0049
-816.227
-938.215
-814.839
-353.661
-849.653
-342.177
-1050.34
-1042.28
-915.723
-871.491
-941.105
47.9862
-733.729
-816.35
-654.333
-96.5504
-482.949
-172.42
-708.315
-563.722
-946.558
-951.103
-1085.83
-826.244
-318.322
-732.719
-792.193
-644.258
-94.5226
-18.5818
-384.936
-107.986
-851.811
-575.901
-853.725
-892.487
-19.1268
-910.704
-936.899
-746.056
-11.8908
-606.557
-746.016
-836.659
-823.904
-333.513
-834.905
-59.5
-690.206
-1020.63
-1058.56
20.6456
-1107.05
-22.4235
-647.384
-640.933
-1043.8
-1052.73
-434.891
-265.162
41.4115
-669.726
-902.489
-791.598
-508.074
-516.77
-82.3344
-529.161
-844.628
-1059.74
-1040.31
-1025.55
-680.452
-66.9156
-723.827
-632.699
-870.354
-1060.64
-564.451
-29.6134
-1074.62
-965.003
-969.121
-793.207
-861.837
-1008.9
-792.793
-765.425
-834.158
-22.0306
-941.737
-947.112
-828.745
-674.696
-873.379
-702.706
-457.685
-460.475
-633.581
-868.222
-908.669
-886.292
-134.615
-1033.05
-331.144
-962.112
-717.346
-735.22
-657.117
-872.159
-855.016
-837.543
-831.159
-835.386
-648.978
-960.246
-822.374
-433.025
-98.579
-388.054
-81.5992
-826.499
-822.305
-125.992
-319.614
-370.17
-706.385
-59.9409
-102.732
-828.088
-84.8272
-950.114
-1088.24
-1079.19
-631.665
-817.12
-962.801
-835.901
-829.963
-829.38
-213.492
-886.232
-1028.88
-813.699
-825.371
-893.392
-398.911
-307.657
-1027.24
-593.824
-265.765
-801.756
-144.607
-49.3052
-109.937
-390.555
-431.229
-961.143
-851.953
-540.503
-116.275
-819.184
-40.7972
-867.531
-723.055
-846.763
-923.319
-434.476
-411.159
-659.019
-648.006
-492.234
-103.831
5.20651
-531.179
-813.787
-161.219
2.56915
2.89874
-103.569
-95.6597
-823.906
-487.72
-141.868
-59.0021
-103.691
-876.55
-537.721
-562.554
-928.131
-1054.1
-119.83
-487.753
-941.153
-922.898
-359.39
-350.16
-712.768
-409.418
-341.984
-630.441
-644.033
-658.09
-592.919
-801.886
-152.34
-632.1
-555.243
-114.776
-397.498
-845.26
-113.09
-800.773
-59.947
-636.564
-856.496
-805.639
-814.651
-780.611
-52.7726
-997.069
-458.471
-1083.77
-335.201
-332.463
-949.811
-1072.92
-51.552
-1037.91
-22.6142
-783.012
-167.761
-838.344
-780.126
-51.8336
-115.248
-87.4607
-877.963
-128.789
-199.38
-566.011
-56.0728
-952.735
-856.873
-830.071
-635.652
-1062.45
-719.965
-463.692
-1049.53
-128.306
-1050.01
-897.335
-815.962
-523.45
-66.0344
-64.1438
9.37816
-680.937
-790.161
-94.9842
-396.898
-686.212
-915.657
-45.3951
-73.716
-676.363
-657.678
-975.953
-983.07
-753.489
-1069.09
-603.834
-943.723
-103.501
-160.45
-104.621
-547.247
-849.052
-674.852
-809.213
-804.452
-862.21
-293.065
-321.85
-23.7759
-747.948
-709.866
-844.513
-1013.96
-966.694
-294.245
-778.833
-161.605
-656.181
-823.444
-768.557
-667.542
-169.962
-124.663
-868.103
-425.81
-831.488
-579.974
-617.388
-613.378
-0.491911
-109.338
-806.11
-320.689
3.64469
-799.581
27.6599
-1001.1
-965.619
-844.555
-534.82
-790.463
-843.704
-836.675
-101.135
-812.942
-1080.22
-169.819
-773.291
-139.11
-904.9
4.86337
-12.1118
-593.813
-636.733
-765.353
-151.13
-107.269
-911.949
-813.869
-138.687
-713.904
-837.804
-1050.42
-955.53
-28.1276
-966.93
43.1322
-551.261
-711.967
-839.871
-961.633
-773.841
-877.595
-822.953
-29.2782
-38.3299
-36.9004
-1061.16
-654.29
-640.251
-1025.09
-809.808
-85.2892
-987.163
-1008.15
-979.95
-980.767
-821.724
-705.391
-649.621
-855.901
-83.9288
-94.9893
-297.467
-972.842
-993.516
-648.961
-836.49
-855.986