/*--------------------------------*- C++ -*----------------------------------*\
| =========                 |                                                 |
| \\      /  F ield         | OpenFOAM: The Open Source CFD Toolbox           |
|  \\    /   O peration     | Version:  2212                                  |
|   \\  /    A nd           | Website:  www.openfoam.com                      |
|    \\/     M anipulation  |                                                 |
\*---------------------------------------------------------------------------*/
FoamFile
{
    version     2.0;
    format      ascii;
    arch        "LSB;label=32;scalar=64";
    class       surfaceScalarField;
    location    "10";
    object      phi;
}
// * * * * * * * * * * * * * * * * * * * * * * * * * * * * * * * * * * * * * //

dimensions      [0 3 -1 0 0 0 0];

oriented        oriented;

internalField   nonuniform List<scalar> 
188166
(
0.00345081
-0.0141616
0.00242765
0.00873702
0.00368595
-0.000115617
-0.00303141
-0.000589019
0.0119773
-0.0129667
0.00583383
0.00436249
-0.0024207
-0.000675003
-0.0012899
-0.00249463
0.00747239
-0.00398971
-0.000864463
0.00286989
0.0160593
-0.0194582
-0.000143043
0.00418086
-0.00863202
0.0021283
0.0205831
-0.0147995
-0.00370754
0.00834021
-0.00664173
-0.00214472
0.00042196
-0.00179442
0.00569694
-0.00338877
-0.000515178
0.00217593
-0.00352061
0.000590531
0.000735948
-0.00323813
0.0022516
0.00294939
0.00265778
-0.0047389
0.0002957
0.00355706
-0.00409298
-0.000409402
0.000957831
0.000380797
0.00418345
-0.00098886
-0.00109838
0.00113356
0.00179362
-0.0020297
-0.00504998
0.00337674
0.000216093
0.00174074
0.00317961
0.00114394
-0.0029338
-0.00173216
0.000751018
0.00353265
-0.00115478
-0.00179439
-0.000995386
0.00158144
-0.000754576
-0.0039868
-0.000169791
0.0362154
-0.00792122
-0.0276526
0.000304769
0.0105525
0.020274
-0.0238769
-0.00162531
0.0217013
-0.0135925
0.00238947
-0.000108096
0.002062
-0.00138862
-0.000561179
0.00378802
-0.00454551
0.000750624
-0.00595369
0.00308606
0.00195231
0.001531
-0.0040781
0.0017337
0.00210529
0.000241726
-0.00179234
-0.00244064
0.000152372
-0.0143494
-0.0162589
0.0199773
0.0102872
-0.00466424
0.0290504
-0.0282606
0.00248241
-0.00585152
0.00682446
0.002584
-0.00389145
0.0114218
-0.00833457
-0.000456712
-0.00289287
-0.00032319
-0.00672261
0.0119393
-0.00508094
-0.00405409
-0.00119222
0.00534714
-8.20387e-05
-0.00184794
0.0011432
0.000244
0.000917259
-0.000278123
-0.00247387
0.000926994
0.0317578
-0.0152915
-0.0196596
0.00160124
-0.00148683
0.000834527
0.000466636
-0.00193756
0.00112962
0.00245701
-0.00124487
0.0256653
0.0187537
-0.00190778
0.00219836
-0.00347041
0.000944935
0.00326384
-0.000763683
-0.00272478
0.00023971
0.00427588
0.000118233
-0.00113372
0.00269494
0.00436496
0.00433336
0.0197789
0.0162343
-0.0311613
0.00013509
-0.00670165
0.00365533
0.00363031
-0.000756379
-0.0063351
-0.00164538
0.0013255
-0.00353167
-0.00013419
-0.00136661
0.00567969
-0.00358934
-0.000725033
0.0157722
-0.0268765
-0.00247618
0.00343015
-0.00378691
-0.00101139
-0.0200082
-0.00512281
0.0308483
-0.00507861
-0.0035351
0.00185937
0.00209799
-0.000423788
-0.000548366
0.00304033
-0.00260094
0.000345098
0.00631506
-0.000226205
0.00310479
0.000980013
0.000172285
-0.000289637
0.00275421
0.000647165
-0.0025758
-0.00100972
0.00251923
0.00109762
-0.00124592
-0.00257028
0.00266121
0.0014194
-0.00197932
0.00917849
-0.00904259
0.00210826
-0.00914628
0.00526175
0.00201979
0.00664348
-0.000677149
-0.00581254
-0.000277961
-0.000824824
-0.0129347
0.013582
0.000262223
0.000177668
-0.00102775
0.000972036
-0.000128274
0.0298197
-0.0358316
0.00535984
0.001963
0.00358181
-0.00332112
-0.000524671
0.000238441
-0.00413285
0.00384264
7.23135e-05
-0.00300508
0.00182454
-0.00139709
0.00557261
-0.00318029
-0.00177521
-0.000671387
0.004877
0.00273916
-0.00946716
0.00187366
-0.0281823
0.0054223
0.0229975
0.0032125
0.00144622
-0.00120879
0.00459279
-0.00384737
0.00102523
-0.00174905
-0.00727167
-0.00117041
-0.000684191
-0.00540768
-0.00143822
-0.000403147
0.0088324
-0.00211456
-0.0018253
0.00449039
-0.00230124
-1.95117e-05
0.00483007
-0.0022037
-0.0430746
0.0239836
0.0128716
0.00153276
0.00634022
-0.00232082
0.00241235
-0.00238627
0.00483741
-0.0016541
-0.00091543
0.00243892
0.00528542
-0.00782773
9.13293e-05
0.0199033
0.0228595
-0.0144563
-0.0322674
0.00709581
0.0305829
-0.00655058
0.00280096
-0.033254
-0.00190898
0.0478698
-0.0344075
-0.0171598
0.00385784
-0.0116682
-0.00498659
0.0251164
-0.00931546
-0.0430936
0.00994617
0.0248624
0.0102497
-0.00913332
-0.0188352
-0.0133857
0.0218505
0.000293115
-0.00917949
0.00162835
-0.00844595
0.00908017
-0.0016988
0.00102755
-0.0402016
0.0122443
0.017026
-0.0351386
-0.0035436
-0.00393591
-0.00139351
0.00616957
-0.000911741
0.0168497
0.0180933
0.0016366
0.000957751
-0.00237305
-0.000716864
-0.0313344
0.0309024
0.00185101
-0.0333986
0.0346511
-0.00243181
0.0343926
-0.00249901
0.00324808
0.00379454
0.00612474
-0.00974499
-0.000455879
-0.00456801
0.00554698
-0.00196331
0.00099464
-0.00312254
0.00484589
-0.00107044
-0.000630565
0.0106847
-0.0262607
0.0181896
0.00261855
-0.000229487
-0.00368981
-9.88758e-05
0.00797653
-0.0235818
0.0116123
0.00074852
-0.0138719
0.0222848
-0.000489456
0.00427517
-0.0043066
-0.00258042
0.0040183
0.00397158
-0.00246325
-0.00514718
-0.00538924
0.00357005
-0.00213724
0.00401808
-0.0283854
-0.00960811
0.032195
-0.00286585
-0.00716402
-2.56881e-05
0.00151119
0.00564988
-0.00148125
-0.00208336
2.47287e-05
0.00589087
0.00441012
-0.0127276
0.00244174
0.0142945
-0.0036928
0.0110606
0.0046604
-0.0106285
0.00135134
0.00496884
0.00183639
0.0016636
0.00194031
-0.0019631
-0.000309374
0.00137487
0.000960692
-0.00321949
-0.00120303
-0.00558919
0.0024847
4.10041e-06
-0.00103787
6.71172e-05
0.0172927
0.0194134
0.00560363
0.00171625
0.00427873
0.000346225
-0.00260849
-0.00363147
-0.000976507
-0.00159586
0.00390332
-0.00198478
-0.000330827
-0.00357382
0.00463496
0.000656371
0.000120199
0.00312362
0.00355602
0.000961693
-0.0044392
0.00147851
0.0217417
-0.0057792
-0.0144281
-0.0073853
0.0114995
-0.00153792
-0.0025937
-0.00162087
-0.00419638
-0.0015098
-0.00165482
-0.00457627
0.00766837
-0.00146326
-0.00117467
-0.000947245
0.00114474
0.000254139
-0.0291281
0.00102686
-0.000838876
-0.00474175
0.00330257
0.00243048
-0.0355432
-0.000654546
0.0345074
0.00170124
0.00345797
-0.00544255
0.00483911
-0.00253628
-0.00298497
0.00476084
9.42337e-05
0.00194036
-0.00477353
-0.000131284
-0.00355274
0.00626934
-0.000768171
0.00554273
0.00713704
-0.00406104
0.0011462
-0.00256167
-6.90049e-05
0.000969258
0.00236047
0.000240221
-0.0262941
-0.00184048
0.0219039
0.00142959
-0.00100528
0.000675377
-0.00315083
0.00136843
0.00182034
-0.00010624
-0.00215331
3.19239e-05
-0.00112527
0.000143605
0.00379527
-0.00223164
-0.00150338
-0.00523312
0.00243342
0.00556698
-0.00249027
-0.00876678
0.00148045
0.00386359
0.00350221
-0.00478785
-1.36883e-05
-0.000143241
-0.00498636
-1.91821e-05
-0.0283852
0.0471803
-0.00269653
-0.0268467
0.0238409
0.00509304
-0.00228068
-0.00534562
-0.0235052
0.00210438
0.00317189
-0.000919086
0.00082462
-0.0034638
0.00352169
0.000394158
-0.0178858
-0.0127002
-0.00779107
-0.00290381
-0.0110668
0.0129392
0.000764328
-0.00177421
0.00409463
-0.002544
0.00023208
-0.0297011
0.0132417
0.0122611
0.0055806
-0.00142343
-0.00371361
-0.00043572
0.0021672
-0.000134153
0.00728328
-0.00147063
-0.0348222
0.00109004
0.00666541
-0.00461418
-0.00557066
0.00347081
-0.00247246
0.00125399
0.00250925
-0.00134196
0.00366604
-0.00341861
-0.000600283
0.000374183
0.0372597
-0.0177507
-0.00464528
0.0020938
-0.00574446
0.0029545
0.00536849
0.000847416
0.00027742
-0.00911131
0.00935449
0.000857553
-0.00124437
-0.00213616
-0.00151622
-0.0235908
0.021984
-0.00552536
0.00632262
0.00348442
-0.00141211
0.00211293
-0.00132205
0.000772738
-0.00166452
-0.00272118
0.00349291
-0.00089438
0.000142389
0.007683
-0.00154427
-0.00041745
0.00119034
-0.01345
-0.00903666
0.0172473
0.00622901
0.020622
0.0248
-0.00293293
0.00699031
-0.00247583
-0.000801929
-0.00276704
-0.00122211
0.00372883
0.000237802
-0.00334575
0.00114873
-0.000577393
0.00257922
-0.00289093
-0.000465455
0.000739433
0.00265554
0.000978641
-0.0773009
0.0424139
0.030878
0.00390943
-0.00326911
0.000410844
0.00276892
9.73676e-05
0.000927223
0.00240246
-0.00370062
0.000345575
0.0180122
-0.0117641
-0.00963665
-0.0299857
-0.0171027
0.0368182
-0.0235895
-0.00178506
-0.0042276
-0.0209995
0.0126114
-0.000612806
-0.000573707
-0.00203806
-9.43948e-05
0.0347828
-0.0104469
-0.0238904
-0.000208004
-0.0298841
0.0170821
0.0003966
-0.000395139
-2.83254e-05
0.000690136
-0.0101779
0.000983188
-0.00589021
0.0259245
-0.0195859
0.00206337
0.0061528
0.0303123
-0.00131033
-0.0071163
0.00461995
-0.00337957
-0.00272994
-0.000936762
-0.00253925
-0.000995452
0.000262877
-0.0338355
0.0224855
-0.0055201
0.0129356
0.016759
-0.0390908
0.00624368
-0.000448463
0.00418265
-0.00228884
-0.00212671
0.0265241
-0.0217173
0.00216345
0.00526504
0.000533347
-9.58217e-05
-7.76702e-05
0.00605107
-0.000696372
0.0177035
0.0205044
-0.032058
0.00102113
-0.00277712
0.0044493
-0.0022173
0.000547731
0.00527469
-0.00106965
-0.00207637
-0.00250488
0.00498405
-0.000369173
0.00320292
-0.00572601
0.00046974
-0.00643433
0.00421575
0.0025998
-0.0247324
-0.0143809
0.000548293
0.0029566
-0.00233312
0.00327758
0.00180195
0.000315716
0.00473951
-0.00303646
0.000118766
0.00359071
0.00207285
-0.00101228
0.0274419
-0.0150995
-0.00916185
-0.00293047
-0.0314112
0.00544064
0.0071673
-0.00129491
0.005526
-0.000636287
0.00469466
-0.000710658
-0.00115655
-0.00430742
0.0115109
-0.00595849
0.00625578
0.0197969
-0.000758588
0.000683387
-0.00154527
-0.00609528
0.00507702
-0.000706321
0.0385459
-0.0119066
-0.0284215
0.000948491
-0.0209686
0.0352291
0.00256866
-5.928e-05
0.00329894
-0.000260666
0.0032655
-0.000202961
0.000169271
0.00734772
-0.0254558
-0.00144541
-0.0208567
0.0325986
-0.00537071
-0.0413346
0.0129819
0.00699027
0.0252886
-0.002084
0.00552712
0.0131585
-0.0208673
-0.0146812
0.000124403
0.00239566
0.00329377
0.000454938
0.00118392
-0.00341194
0.00225031
-4.88096e-06
0.00892658
-0.00459653
-0.000545985
-0.00382852
0.00220293
0.0064345
0.000315145
-0.00354403
0.00506677
0.000551918
-0.0201878
-0.000188369
0.0198525
-0.00039211
-0.00268777
0.00550297
-0.00391044
0.00118591
3.35882e-05
-0.00415879
0.00276829
-0.00695358
0.00150041
0.00277864
0.00580837
-3.36127e-05
-0.00695174
0.000816435
0.00727016
-0.00146414
0.000166931
0.0487291
-0.0404718
-0.00655175
-0.00108864
0.0354367
0.0197472
-0.00650806
-0.00528474
0.0138186
-0.0049446
-0.000390425
0.0066345
-0.00358237
0.00191273
0.00106204
4.24077e-05
-0.00809639
0.00639096
0.00159249
-0.00222748
0.00251495
0.00235915
-0.00250483
0.00329344
-0.00118312
0.000386468
0.00379317
-0.00113237
-0.00104856
-0.00125926
-0.00284881
0.00642466
-0.00221163
-0.00136948
0.0297587
-0.000889456
-0.0275694
-0.000504864
-0.00230133
-0.0021923
0.00478038
-0.000308056
0.00789952
-0.00419351
-0.00365284
-7.7339e-05
-0.00726855
0.00531299
-0.000362731
0.0289331
0.011058
-0.000904606
0.00683568
-0.00427297
-6.69768e-05
-0.00258379
0.00236243
-0.00908601
0.00292867
0.00410809
0.0299948
-0.0111605
0.00171749
-0.0066359
0.00277513
0.0061923
-0.00218198
-0.00429982
-0.000445126
0.00165582
-0.0340066
-0.002577
0.0338616
0.00401483
0.0246903
-0.00974132
-0.00787267
0.00187055
0.0018215
-0.000618614
0.00263905
-0.000191555
-0.00111855
-0.00420395
-0.000565929
0.006043
-0.0011861
0.0040133
-0.00690203
0.00149944
0.00134528
0.00216837
0.00340465
-0.000494692
0.00197237
0.00219804
-0.00254636
-0.0012685
0.00542111
-0.000959322
0.000266823
0.00459191
0.0015665
-0.000706585
-0.00214505
0.00343102
-0.00251737
0.00128443
-0.00401763
0.00147283
0.000467889
0.00224944
0.000203084
-0.00136952
-0.00119301
0.000822263
0.0027925
-0.00128287
0.00292567
0.000484507
-0.000542818
-0.00228773
-0.0027888
-0.000561053
0.00411938
-0.00295143
-0.000273023
-0.0143643
0.0386065
-0.0209224
-0.00129062
0.00184386
-0.000719866
-0.00915158
0.0069162
0.00129043
0.0011237
-0.00534522
-0.00142987
0.00219245
0.00431508
0.000725276
0.0050893
-0.0107236
0.0074688
0.00333712
-0.00474817
0.00328603
-0.00178091
-0.000374708
-0.00111449
-0.000720446
-0.0022075
-0.00693863
0.000900306
0.0282531
-0.00928237
-0.0235916
0.0122316
2.30965e-05
0.00311462
0.000862629
-0.0167203
-0.00323994
0.000390367
-0.00199396
-0.00251323
0.00252715
-0.00368635
0.00073519
0.000451856
-0.000584498
0.00339143
-0.00245278
-0.000334455
-0.00434483
-0.00100468
-0.0121874
-0.0155218
0.00210342
-0.00484982
0.00122486
0.000563008
-0.000481015
-0.00351298
0.00484194
-0.00105014
0.00835075
-0.0011434
-0.00524618
-0.00211422
0.0256934
-0.00879042
-0.0149363
-0.00252902
0.0340324
0.00175795
-0.0107206
-0.00175713
0.00272931
-1.34728e-05
-0.00238731
-0.0246943
0.0109468
-0.00705832
0.00541862
-0.0022203
2.06276e-05
0.00264134
1.54527e-05
0.00593254
-0.00364055
-0.000123185
-0.00523855
0.00506739
-0.000770683
0.00552208
-0.00145858
0.000538267
-0.00394175
-0.00161408
0.00691305
-0.00130804
0.000838961
0.00481426
-0.00563927
1.63529e-05
-0.000617845
0.00166597
0.00397138
0.00203836
-0.000488925
-0.000192704
0.00283043
-0.003934
0.00031762
-0.00966775
0.026646
-0.0136342
-0.0033226
-0.020141
-0.0206891
-0.00336633
-0.00190427
0.00419975
-0.00111193
0.00270063
-0.00045614
0.00384786
-0.00015601
-0.000248648
0.0190845
-0.00668219
-0.00222257
0.018285
-0.0149938
-0.000578889
-0.0253104
-0.00963517
0.016466
-0.00507246
-0.0148344
0.00164497
0.0203977
0.00347841
-0.00726091
-0.0187927
-0.0202652
0.0507476
-0.0108245
-0.00352565
0.00100326
0.00317589
-0.000624421
-0.00508865
0.00545758
0.00115102
-0.0016188
-0.00512603
0.00107544
-0.0013559
-0.0195328
-0.00298759
-0.00632958
-0.000796074
-0.00042207
0.00309149
0.000542588
-0.00194701
0.0251536
-0.0128862
-0.00136832
-0.00413094
-0.00157954
-0.00043986
0.00561645
-0.000764601
-2.85458e-05
0.00114652
0.00388054
0.000556189
0.00412114
0.000337969
-0.002481
-0.00245791
0.00383448
-0.000236563
-0.0151729
-0.00975123
0.0138214
-0.0277991
0.023032
-0.00463047
0.000434329
-0.00536674
0.0128355
0.000857352
-0.00227853
-0.000193711
-0.00319888
0.00311417
-0.000509127
-0.00251305
0.000127001
-0.000884691
-0.0364758
-0.00497328
0.0282231
0.0067014
-0.00652748
0.00172377
0.00229004
-0.00109289
0.0374278
-0.0360613
-0.00110127
-0.00157714
0.000974707
0.00267431
-0.00343429
-0.0001443
0.00535272
-0.0363873
0.0268661
0.00337427
0.00459002
-0.00422349
0.000290452
-0.000654332
-0.00544813
0.00368267
0.00029965
0.00075636
0.000397471
-0.00488819
0.00323018
-0.023521
0.0180729
0.00187595
-0.00612135
-6.33372e-05
-0.00131961
-0.00111688
-0.0381826
0.0257921
0.00231798
0.00198103
0.00468418
0.00242792
0.00210622
0.00195753
-0.000781142
0.00103346
-0.00417439
0.00255233
0.000565532
0.00589145
-0.00669179
0.000197199
0.00471014
0.00018759
0.000530577
0.00132567
-5.87506e-05
0.00016814
-0.00261937
-0.00334097
0.00536301
-0.00130753
-0.000727392
0.0038233
0.00104556
0.00155278
0.00307652
0.000211315
-4.39539e-05
-0.00237006
0.00420725
-0.00204939
-0.00777474
0.00722074
-0.00118214
0.00167531
-0.0264738
-0.00686889
-9.95831e-05
0.0044635
-0.00046318
-0.0298255
0.00998396
0.0111497
0.00995587
-0.0145278
0.0218153
-0.00363587
-0.00384037
0.00166604
0.00124429
-0.00280004
-0.000131577
0.00121659
-0.0040065
0.00244536
0.000357513
0.0141696
-0.0353976
0.0216198
0.000139873
-0.00420616
0.00488687
-0.000309271
-0.00309763
0.00502792
-0.000210022
0.00203946
0.000781811
-0.000718718
-0.0164963
0.0107188
0.00588701
0.000418807
-0.0154469
0.0325205
-0.0206866
0.00458688
0.00335723
-0.00295952
0.000150464
0.00230417
0.00247634
-0.00152799
0.0200661
-0.0326663
-0.0110926
0.018299
-0.0126023
-0.00354239
0.00246066
-0.00224284
0.000146513
-0.000372083
0.000414615
0.00261704
-0.000581948
0.00177238
0.00232729
-0.00423228
0.00014519
-0.00629035
-0.000460447
-0.0018944
-0.00477938
0.000367118
-0.0038903
0.00192593
-0.000499313
0.0327434
-0.0294141
-0.00821602
0.0044727
0.0415738
-0.0013604
-0.00414527
-0.00380918
0.00112117
-0.000858934
0.00648484
-0.00324876
0.0358451
0.00478931
0.0023562
-0.000887697
0.00748214
-0.0059452
-0.000346945
-0.00551499
0.00691086
-0.00210809
0.0116487
-0.0405697
0.0282444
0.000823717
-0.0224015
-0.000591852
-0.0322004
-0.00363611
4.44863e-05
-0.0344177
0.0350111
0.000435264
-0.0311696
-0.0465442
0.00160699
0.00123688
-0.000619804
0.000909374
-0.00135727
-0.000809165
-0.00222509
-0.000329394
-0.000628722
0.00166742
0.00066588
-0.0123284
-0.0118355
0.0032075
0.00400961
0.00277306
-0.00616845
-0.000578688
-0.00315178
0.00494353
0.00229639
-0.000137676
-0.000936262
-0.00219407
-0.00332299
-0.00298078
0.000146849
-0.00285155
0.00112865
0.0222834
0.00391077
-0.00978543
-4.38975e-05
0.00383625
-0.00439112
0.000605655
0.00383127
-6.29838e-05
-0.0037708
0.00125202
0.000754812
0.00122166
0.00358593
-0.000218703
0.0071162
-0.00444131
-0.000992036
-0.00165967
-0.0316378
0.00669327
0.00115652
-0.00501652
0.0020072
-0.00061689
-0.00308194
-0.000111644
0.0188039
-0.00194809
-0.0142719
0.0211426
-0.0439016
0.0173423
0.00509115
-0.00369957
0.00136859
-0.00120185
-0.00302522
-0.00272002
0.00521011
0.000146669
-0.033816
-0.000618016
0.034014
-0.0218719
0.000883806
0.00228912
0.0033177
0.00133713
0.00528568
-0.000337128
0.00634213
-0.000442834
-0.000681967
0.00138081
0.00322493
-0.000745855
0.000777494
0.00443299
0.000576632
0.0162445
0.0185651
-0.00328815
0.000609801
0.00234459
-0.000357297
0.00588808
0.00843857
0.000351937
0.00710823
-0.0305541
0.0215346
0.00108375
-0.000843934
-0.00130844
-0.00145533
-0.000660583
-0.0191674
-0.0210498
0.000320677
0.00145663
0.00445805
0.00227609
-0.00388394
-0.000433351
0.000416891
-0.00296105
-0.000601938
0.000651169
0.0419569
-0.0159173
0.000566611
-0.0045102
-0.000651295
0.000418856
-0.00244313
-0.00226852
0.000205191
0.000181565
0.00285975
-0.00317552
0.000133892
0.00407007
-0.00134907
-0.00165692
-0.00252326
-0.000797103
0.00358655
-0.000178927
-0.0157867
-0.00660969
0.00631644
0.00624124
-0.00239566
0.0124507
-0.00481212
-0.00165156
-0.018813
0.0193359
-0.001724
0.00134539
0.00633638
-0.0299835
0.00413526
-0.0023281
0.00465468
-0.00186571
-0.000452265
0.000752396
-0.0111148
0.00460224
0.0353136
-0.0148365
-0.0213297
0.00129665
0.0134996
0.0113872
-0.000414788
-0.0339787
0.000478926
0.0235129
-0.0306542
0.00410926
0.00483674
-0.000236575
-0.00432566
-0.0153671
-0.000455301
-0.0024772
0.00268281
9.49676e-05
-0.0365726
0.0253198
0.00964919
0.000686723
9.91282e-05
-0.00235385
-0.000279741
-0.0413057
0.0159078
0.0024835
-0.00347503
0.0042788
0.00023042
-0.00101277
-5.52075e-05
0.00656934
0.00444044
0.00452294
-0.000834773
0.00458792
-0.000672176
-0.0027775
-0.00114606
-0.002174
-0.000294821
0.000169306
-0.00373218
0.00367605
0.000250828
0.00128708
0.00236834
0.00093685
-0.00407441
-0.000186859
-0.00972582
-0.0189173
0.0193267
0.0083168
0.00488446
-0.000767376
-0.0031637
-0.000950144
0.000307403
0.00367713
0.000894824
-0.0210111
-0.0125469
0.0102582
-0.00644967
-0.0160881
0.0175058
-0.0311002
0.00599182
0.00101516
-0.00590522
0.00348978
0.00784439
-0.00367829
-0.00512863
0.000872217
0.0434442
-0.000856995
-0.00460202
0.00383085
0.000581175
0.000186825
-0.0185951
0.00710697
-0.0335929
0.0188736
0.000645905
-0.0176629
0.0142414
0.014836
0.0350258
0.000736713
0.00171693
0.000149258
0.00218504
-0.00055732
-0.00840464
0.00217874
0.00520425
-0.00146739
0.000744665
0.0024563
0.00199711
-2.17903e-05
-0.00497724
0.000249851
-0.00511369
0.000957585
-0.00338943
-0.0029362
-0.00184231
-0.00587405
0.00237497
0.000469796
0.00294308
-0.00203177
5.42447e-06
0.0414808
-0.0306438
-0.0119912
0.00280551
0.0171271
0.0220623
0.000874899
0.00924009
-0.000165752
-0.00568257
0.00332388
0.000808143
-8.56616e-05
0.00232486
0.000495054
0.00172362
0.00101146
0.00229135
-0.0156964
-0.0194861
0.000130296
-0.00170563
-0.00263406
-0.00027231
-0.00404159
0.0315883
0.00588255
0.000189781
0.0309449
-0.0213622
-0.00356885
-0.00093083
0.00202566
0.000154574
-0.00264811
-0.00918407
0.0182751
-0.00416046
-0.0315732
0.035679
-4.24445e-05
-0.00428535
0.00464802
0.000887225
-0.00126489
0.0454888
-0.00368264
-0.0104226
0.00247751
-0.00157514
-0.0285775
0.0224179
0.00184289
0.00421475
-0.00243107
-0.00154746
-0.013303
0.0599428
-0.0419158
-0.00480413
-0.0177569
0.0250289
0.0101727
0.051208
-0.0358936
-0.0139049
-0.00109513
-0.0012614
-0.0136353
0.00875139
-0.00115676
0.000528945
-0.00157729
0.0032392
-0.00201102
0.000214519
-0.00212917
-0.000508286
-0.0306496
0.000287515
0.0038324
-0.00688355
0.00114235
0.0471971
-0.021797
-0.0278454
0.00466413
0.0143562
-0.0175538
0.0124643
-0.00979219
0.00260959
0.00442076
0.000608852
0.00285396
0.00114785
0.00327303
0.00307767
0.00155661
-0.00069338
-0.00663169
0.000550517
0.00278656
0.00225273
-0.00413704
0.000166964
0.00364296
-0.00459455
0.000321163
0.00431534
-0.00284061
-2.59244e-05
-0.00141428
-0.00520344
-0.0137049
-0.0129267
-0.0532161
0.0510852
-0.00540588
-0.0119971
-0.0243815
0.000374293
0.000457767
-0.00461736
0.000393037
-0.0202663
-0.016275
-0.00786762
-0.000467186
-0.00177633
-0.00183311
-0.000409286
0.0101192
0.0133271
0.0164832
-0.00924351
-0.00105274
-0.00380466
0.00174772
0.001182
-0.000416653
0.00314423
0.00446931
0.0138721
0.0256146
-0.0354464
0.00210213
0.0219922
-0.00036643
-2.40229e-05
0.0031805
-0.000641635
-0.00310278
-0.000290831
-0.000502417
0.000311565
-0.00451359
0.00457616
-0.00036189
0.00173938
-0.00934867
0.00521433
0.00244634
0.0058119
0.0042523
-0.00207884
-0.0180526
-0.0110962
0.0262623
0.00322958
0.0299112
0.00458648
0.039355
-0.0185736
-0.0172755
-0.00350296
0.0224189
0.00532688
0.0129542
0.0189381
-0.0326482
0.0157384
-0.000686454
0.0278865
0.00904639
-0.000916005
0.0356653
0.00176277
0.032449
-0.0168823
0.00399164
0.0063013
-0.00145461
0.000875238
-0.0411914
-0.00364711
0.0258739
0.000647293
-0.0279508
0.0065927
0.00635159
0.00233646
-0.0036201
0.00177069
-0.00734513
-0.0038286
0.00463509
-0.000492698
0.0165282
-0.00481797
-0.0219837
0.00965911
0.0146681
0.00455721
-0.0332159
0.00457045
0.0300541
-0.00308461
0.00066586
-0.00729798
0.00261942
0.00318681
-0.0326821
0.00467061
-0.000237057
-0.00307901
0.00281955
0.000639186
0.0216523
0.00241215
-0.00494739
-0.00337842
0.000587509
0.000466653
-0.000496436
0.00594341
0.0010717
0.00230883
0.000491205
0.0148433
0.0161665
0.0151414
-0.0147231
0.0195316
0.00829342
-0.0066312
0.000826939
0.00193623
-0.00517695
-0.00131823
0.00806683
0.00500034
0.00592106
-1.99227e-06
0.000485557
-4.38655e-05
0.0222089
-0.0356166
-0.00114664
-0.00352928
0.0149658
0.00268447
-0.0020768
-0.00307465
-0.000839669
0.00285004
0.00617473
0.000433474
-0.00170774
-0.0124698
-0.00272477
-0.00858729
-0.00509807
0.00665782
0.00751432
-0.0194876
0.0122218
-0.0011035
-0.0385871
0.00461084
0.0381762
-0.00904312
-0.0301128
0.00965982
0.0206217
0.032364
-0.0130619
0.00392362
0.00337718
-0.0066343
-0.000570365
-0.00512894
-0.00275486
-0.00667956
-0.0229051
-0.00199766
0.00194799
-0.00346736
0.0006563
0.00125543
-0.000938785
0.00889778
-0.00267983
0.0297299
0.0053356
0.00343496
-0.00351309
-9.70663e-05
0.00800221
-0.00151779
-0.00191801
-0.00552433
0.0118976
-0.00867716
0.015016
-0.012129
0.00650678
-0.0033296
-0.00196282
-0.00482098
-0.00471995
0.000421073
-0.024007
0.00974832
0.00528529
0.00616987
0.00153123
-0.00295649
-0.00129681
-0.00410538
0.0015843
0.00275098
-0.00338852
0.00118687
-0.000529865
-0.00360755
0.000136032
8.41373e-05
-0.000969612
0.000295361
0.0077419
0.00350924
0.00418536
-0.000328971
0.00116333
0.00278126
-0.000245803
0.00139666
0.0353248
-0.0176558
-0.00640052
0.0237218
-0.00979505
0.000479783
0.0343928
-0.0216465
-0.0001659
0.0209404
0.0132359
-0.00221777
0.0215422
-0.0197024
-0.00507819
0.00340476
-0.0282569
0.0168819
0.0093325
0.0020158
-0.017701
0.00153135
-0.00460552
0.00263039
0.00314887
-0.00135554
0.012768
0.00312299
-0.0156182
0.0143849
-0.00675317
0.00828624
0.000863455
0.0112844
0.0134804
-0.00359741
0.00435233
-0.0029026
8.53183e-05
0.00865605
-0.00552589
-0.00225926
-0.000894066
0.00910883
-0.00807507
0.000270395
-0.00913709
0.000365476
0.00343663
0.0020604
0.000126185
0.00111005
0.00363375
-0.000586632
0.00032845
-0.00368293
-0.0021275
-0.0063296
0.000371489
-0.000364381
-0.00382268
0.00284431
0.00150039
-0.000542117
-0.0039509
0.000545128
0.0203587
-0.0190945
-0.010024
0.00218577
-0.00462086
-0.00116678
0.00323581
0.0281402
0.00359932
0.00154281
-0.00163062
0.000972254
0.00326827
0.00285952
-0.00662193
0.000592726
0.00348846
0.000594581
0.00895594
0.00275647
0.000613092
-0.00362959
0.0216326
-0.0284326
0.000721975
0.000107466
0.00403702
-0.000181177
-0.0239769
0.00133637
0.00143307
0.0245393
7.36871e-05
-0.00262837
0.00286606
-0.0003298
-0.0029675
0.00311066
-0.000133224
0.0373312
-0.016426
-0.00828226
-8.39429e-05
-0.000426323
0.00150643
-0.000430143
-0.000921066
0.00131499
-0.00323883
0.00337254
-0.000482593
0.00291983
0.0073711
-0.00462982
-0.00450383
0.00199003
-0.0088581
0.00486536
0.00191172
0.00448831
-0.00242019
-0.00228989
0.000217534
0.0226834
-0.0276258
-0.00072074
-0.00258789
-0.00224689
0.000825642
-0.0227157
0.00805071
0.0292668
-0.0139403
-0.00615326
-0.00259495
-0.00292455
0.00296326
0.00115706
-0.00225019
0.00450757
0.0010285
-0.0106817
-0.00331753
-0.0113072
-0.00559109
-0.0132607
0.00502038
-0.000192397
0.00210556
-0.00106087
-0.00236453
-0.00249667
-0.00511099
0.00494764
9.93732e-05
0.000128371
-0.00430693
-9.81401e-05
-0.00049013
-0.00363136
-0.000109431
-0.00249421
0.00590839
-0.0032004
-0.000184028
0.00051626
-0.00495353
0.000223351
-0.00953546
-0.0235043
0.0367159
-0.00371867
0.00035253
0.000605789
-0.0306205
0.0286347
-0.00280041
-0.0142806
-0.0226424
-0.000304591
-0.037227
0.00766465
-0.00112736
0.00646687
-7.32033e-05
-0.000794481
-0.00337743
0.00381961
0.00145531
-0.00181783
-0.0172743
0.00103577
-0.00191672
0.00160134
-7.92109e-05
-0.000171843
-0.00264646
0.00192246
0.000479603
-0.00348761
-0.00401153
0.000692314
0.00232877
-0.00356096
-0.000862403
-0.00361302
0.00226778
-0.000319286
-0.000741179
0.000410698
0.00319974
0.0223131
0.000759673
-0.0297684
0.0144325
0.000312235
-0.00182598
-0.000857475
-1.87283e-05
0.0188665
-0.0282241
-0.000108508
0.00347921
-0.000344185
-0.00112033
-0.0440564
0.0232205
0.00414715
-0.00407874
0.000334296
0.00161058
-0.00418648
0.00530679
0.0110524
-0.028663
-0.00244854
0.0248824
-0.012464
-0.00294125
0.0307856
-0.00313541
0.0070608
-0.00117572
-0.000907172
-0.0029287
0.00038571
-0.00481865
-0.0202555
0.00621689
-0.00457919
-0.00153411
0.00020297
-8.35657e-05
0.000993778
0.00126185
-0.000757573
-0.00258214
0.0037279
-0.000399076
0.0343091
-0.00840852
0.00443214
0.00499292
-0.00257193
0.000303888
-0.00974726
-0.0262685
-0.000589982
-0.00402432
0.0064619
-0.000495614
-0.00157044
-0.000473389
0.0071271
-0.0055458
-0.00238682
0.00607361
-0.00118663
0.00840168
-0.00977369
-0.00166536
0.00076943
-0.00114419
0.00101808
-0.000588896
-0.0105719
0.0134203
0.00473177
0.00172746
-0.00385325
-0.00272813
-0.00443147
0.0022266
-0.000734856
0.0114222
-0.00255207
-0.00672465
-0.00222587
-0.00744055
-0.00519402
-0.0134151
0.00557224
-0.00392602
-0.00199432
0.0244308
-0.0297209
0.000915767
-0.00146873
-0.00125617
-0.000553984
-0.00413552
-0.000750345
-0.00470407
0.000964489
-5.42948e-05
0.00370478
0.00168485
-0.00550435
0.00134765
0.000321935
0.0300598
-0.0293578
-0.00304142
-0.000345112
-0.00067995
0.00124368
0.000229763
0.00282441
0.00244674
0.000813008
0.0370619
-0.00133007
0.00310672
-0.00166185
0.000333423
0.000328028
-0.00129786
0.000429313
0.00220691
0.000733885
-0.0211576
0.00656646
0.00259227
-0.000672363
-0.000997292
-0.0111587
-0.00129479
-0.00552163
-0.00328345
-0.00336654
0.00525393
0.00143043
0.00630349
0.00221294
0.0181683
0.000498257
-0.000168894
0.0237188
-0.0266779
-0.000716319
0.00253267
-0.0182717
0.00116829
-0.00400227
0.00297995
0.00135889
-0.000323083
-0.00220457
0.000537483
-0.00924781
0.0038612
-0.0292508
0.0104227
0.00160067
0.000307085
0.000126231
-0.0188859
-0.00911705
-0.0157837
-0.00446602
-0.00340433
0.000169738
-1.18408e-05
0.00157484
0.000541273
0.0146857
-0.0385514
0.00690637
-0.000435868
-0.00318805
-8.74676e-05
-0.00295016
7.6101e-05
-0.00150516
-0.00328353
0.00299829
-1.82358e-05
-0.0026215
0.00427216
0.000814981
0.00216848
0.00722578
0.00221236
-0.00733832
0.0228733
-0.0192628
0.00368283
0.0173006
-0.00242982
0.00331478
-0.000867516
-6.66928e-05
0.00252981
-0.009779
0.0022528
0.00190344
-0.00279326
0.000528996
0.00257454
-0.00031629
-0.00131268
-0.00393991
0.000670235
-0.0273792
-0.00540427
0.000632988
-0.0022359
-0.000856152
-0.00127996
-0.0176502
-0.00915812
0.00128766
0.00487226
-0.000703044
-0.000840499
0.00599476
-0.0003285
0.00312027
0.00213156
0.00120095
0.00453976
-0.0037666
0.00276151
0.00383631
0.000367419
0.000753268
-0.00138596
-0.000265377
1.63512e-05
0.00358338
0.0279704
-0.00226892
0.00167153
0.00166681
0.000368503
-0.00732854
0.00680231
-0.00298782
0.00612127
-0.00419751
9.58448e-05
0.00530493
-0.00150651
-0.0031403
-0.000676499
0.00267292
-0.00480589
0.00183417
-0.00257566
0.00439351
0.00112427
0.000521414
-0.00322636
0.00317946
-0.000484609
-0.00240894
-0.000535659
0.00617546
-0.00267397
-0.00314969
-0.000416672
0.00346385
0.00375007
0.000198683
-0.0112888
0.00532852
0.00189301
0.00383298
-0.0100488
0.00311816
0.0208916
0.00178012
-0.0218136
-0.00117925
-0.0181086
-0.00105562
-0.0113113
0.00947319
0.000619933
0.00364789
-0.000653439
0.00528823
-0.000335659
-0.00618221
0.00128189
0.00129992
-0.00687635
-0.000842655
-0.00208853
-0.0012987
-0.00019609
-0.00241761
0.000474404
-0.000479579
-0.00522354
-0.000731327
0.00299388
-0.00174122
-0.0017445
0.000250914
0.00114339
0.000570161
0.00110079
-0.00207414
0.00513313
-0.00284076
-0.000195511
-0.00295576
0.00467301
-0.00162686
-5.34868e-05
-0.000488875
0.00245548
-0.0393241
0.0267661
0.0012675
0.0122078
-0.00840087
0.0235928
-0.0140361
-0.00126031
0.00134006
-0.000427761
-0.00424411
-0.0120451
0.0045335
-0.00251665
0.00328252
-0.000389673
-0.00238107
0.00133241
-0.00112531
0.0146132
-0.00352402
-0.0102163
-0.00103274
-0.00218625
0.020502
-0.00711726
0.00271284
0.0256963
-0.000465767
0.000619271
0.0164154
-0.00674251
-0.00201074
-0.0084694