/*--------------------------------*- C++ -*----------------------------------*\
| =========                 |                                                 |
| \\      /  F ield         | OpenFOAM: The Open Source CFD Toolbox           |
|  \\    /   O peration     | Version:  2212                                  |
|   \\  /    A nd           | Website:  www.openfoam.com                      |
|    \\/     M anipulation  |                                                 |
\*---------------------------------------------------------------------------*/
FoamFile
{
    version     2.0;
    format      ascii;
    arch        "LSB;label=32;scalar=64";
    class       volVectorField;
    location    "10";
    object      U;
}
// * * * * * * * * * * * * * * * * * * * * * * * * * * * * * * * * * * * * * //

dimensions      [0 1 -1 0 0 0 0];

internalField   nonuniform List<vector> 
76965
(
(13.8761 5.05859 1.00501)
(9.26044 4.17254 -5.71591)
(10.1736 1.8195 0.912374)
(8.86567 4.01954 3.29992)
(14.2449 2.37058 -4.24359)
(6.96778 0.528458 -3.46401)
(13.9681 0.0786931 -3.55549)
(6.08734 -0.194064 -3.26521)
(13.7318 3.44116 -0.580894)
(17.1694 -0.296048 2.93922)
(3.17708 -1.50135 -1.29063)
(5.75687 -1.42899 -2.38084)
(16.4115 -0.0878595 2.46708)
(19.5725 -3.11599 0.978653)
(16.8823 -3.24742 1.08872)
(4.00392 -1.56152 -1.03783)
(0.882029 2.69952 0.0550749)
(-0.376764 1.52893 1.13142)
(1.3716 0.937361 0.204995)
(3.6734 -1.68545 -0.448921)
(2.47652 3.05657 0.286856)
(6.27967 -1.84158 1.19463)
(6.62391 -0.0596677 2.1349)
(5.17185 -2.60397 2.65547)
(3.53812 -2.0657 -2.41346)
(6.02136 -0.559881 -3.0314)
(2.38448 1.2938 1.72226)
(9.17557 2.72721 -2.74956)
(10.6923 2.43236 -2.79048)
(10.587 3.08273 -4.07121)
(0.606227 1.39855 -0.107486)
(5.63554 3.58091 1.85959)
(9.73197 0.128461 4.18659)
(14.8255 8.90567 3.409)
(6.98223 -4.97015 -3.34725)
(4.43053 1.90455 -2.26967)
(5.24383 0.485338 -3.97425)
(9.29706 0.165303 0.911506)
(3.80494 0.496664 -2.19825)
(2.61391 4.53061 -0.342923)
(7.98823 -1.62719 2.37749)
(5.18331 2.73448 0.7388)
(12.6071 6.35628 1.54283)
(12.3604 4.2686 2.43194)
(9.23463 -0.746658 2.41233)
(8.20461 -0.291235 1.0804)
(2.08893 6.22867 0.279943)
(3.44793 5.8171 -0.187359)
(5.46505 0.952789 0.800982)
(16.4133 0.0512836 5.82807)
(10.6937 0.777412 -2.77661)
(14.7819 -0.985073 5.35923)
(10.7069 -3.0775 5.0885)
(11.9928 3.67298 2.08485)
(0.731019 1.12641 0.0840133)
(16.84 -0.864558 3.92904)
(12.8477 4.66791 1.67129)
(11.1671 4.58805 0.766781)
(4.81493 4.95212 -2.96271)
(5.43623 3.45131 -3.34535)
(5.59909 2.08868 -0.286883)
(5.69157 2.95696 -0.0924884)
(6.45887 2.6646 1.1574)
(6.92742 -0.516891 0.248339)
(5.59774 0.358411 3.55279)
(8.27126 0.238472 0.0126925)
(20.0224 -0.0290855 -2.24153)
(1.50515 2.32531 -0.0724377)
(4.48232 -0.519375 -4.82308)
(8.4791 -3.42524 -2.38439)
(14.459 -0.914308 -6.47084)
(-0.428251 0.589646 0.617766)
(3.9729 -4.44266 -1.71063)
(11.9763 0.460406 6.17915)
(6.67743 4.11111 0.36562)
(5.86654 4.12147 0.256546)
(14.2382 -0.0733148 -5.1074)
(1.9494 1.29893 1.00315)
(0.940816 0.228685 0.671734)
(7.73535 0.551665 -0.00471976)
(5.91571 4.10852 1.22692)
(8.82169 1.43007 -4.33069)
(11.8527 0.169748 5.1903)
(3.44071 0.0954693 -1.98667)
(6.66554 -2.40831 0.960789)
(6.38714 -0.161953 -0.409078)
(9.09935 0.0976994 -0.494473)
(9.45351 -4.65908 0.0969751)
(11.2481 -3.81946 1.7145)
(10.8427 -3.36135 4.24878)
(5.92522 -1.47325 3.53333)
(10.5252 -0.307887 2.00502)
(12.6555 -4.51325 0.97599)
(1.968 1.69529 0.329257)
(2.90342 2.36697 -0.446427)
(6.60804 0.443336 -0.962743)
(8.63657 1.75744 5.80275)
(8.71094 0.430757 -0.232978)
(8.60283 0.361503 -0.307636)
(3.18482 1.77469 1.73639)
(2.17933 3.77263 0.099647)
(11.8519 -0.515805 -6.90245)
(11.8631 1.87686 4.54825)
(8.24395 3.09777 0.851254)
(1.5243 2.55325 -0.319621)
(6.36981 -0.60761 -0.624481)
(7.6434 -1.36663 -0.336822)
(7.98419 -0.207785 -4.07075)
(9.98581 0.641455 6.0449)
(2.38861 -0.421307 1.25952)
(8.49806 0.524402 -0.411487)
(8.68613 3.10137 -5.91525)
(12.3689 3.02209 1.99972)
(11.4889 -2.53515 3.14534)
(8.69565 -0.183107 1.80663)
(4.46265 -4.27067 0.612235)
(7.10872 -3.09479 -3.35889)
(-2.57826 1.25225 0.900437)
(6.36521 -3.95697 -2.86214)
(12.7691 3.81314 5.08166)
(13.2488 3.95075 5.61707)
(10.633 -0.346505 -0.263436)
(16.0888 0.998932 2.22046)
(11.0122 3.13862 -5.18747)
(11.5258 1.96008 0.784032)
(14.362 1.24407 1.70032)
(5.7498 1.54133 0.208813)
(-0.749569 1.1051 0.560102)
(1.16988 -2.35241 -0.907334)
(8.91722 -2.70887 4.3958)
(7.96113 -2.29818 3.43172)
(16.3371 -1.83316 3.22471)
(5.50231 -1.03187 2.85236)
(9.11972 -0.486848 -0.708308)
(3.06345 -0.47277 0.204048)
(7.94698 -0.548418 -0.709548)
(5.66517 3.10847 3.7824)
(12.2578 3.98333 1.58893)
(11.3594 4.88336 1.21893)
(13.2177 5.60449 3.48581)
(5.98563 1.5514 1.07924)
(13.4366 3.10762 2.87296)
(17.066 2.54862 -6.29909)
(1.5347 -0.304404 0.967046)
(3.40901 1.13422 -0.118596)
(0.935744 2.56238 1.09943)
(1.42527 1.91364 0.924077)
(5.2391 -2.55922 1.91339)
(5.69968 -0.675882 3.49597)
(11.9774 -0.0776019 -1.61599)
(4.29752 -1.09496 2.79885)
(6.98328 -1.79469 1.80851)
(9.01326 -0.548435 -0.120234)
(8.59335 1.27038 -3.44733)
(11.2845 1.18665 -1.08688)
(0.243928 3.31516 1.52165)
(3.43471 0.447468 0.167196)
(12.8509 -4.04455 3.90922)
(6.66791 -0.741623 -4.23858)
(13.0655 -1.8269 -2.77558)
(10.5701 -4.96987 1.09401)
(11.3377 4.4904 3.84719)
(12.0244 4.24782 4.00421)
(8.59901 -4.88999 -1.16639)
(8.78025 -0.231636 -0.36163)
(5.68426 0.907761 1.18911)
(0.832674 -0.476077 0.731327)
(19.6268 -1.62937 6.11798)
(9.57511 -0.520058 -0.123898)
(2.59438 1.52971 -0.302469)
(5.61814 3.07229 0.743078)
(8.0603 1.55572 1.50152)
(6.29756 2.79164 1.0108)
(6.3612 -2.25768 0.0081536)
(12.8131 2.99784 0.0940643)
(1.93378 4.42074 -0.221987)
(11.5285 -0.301835 -1.84137)
(16.3394 4.04689 2.97533)
(8.28787 0.624585 0.0184638)
(10.7683 -1.98909 3.00846)
(8.63267 0.290515 0.0587865)
(11.0641 5.14772 -5.44522)
(15.282 2.75452 -2.62823)
(13.0333 -0.306545 -1.43673)
(9.14668 -1.09477 -0.951425)
(14.793 6.09874 2.31255)
(17.6176 0.381 -0.749471)
(12.5686 0.460311 -2.75088)
(15.2111 2.46453 0.395472)
(4.5528 -1.72067 -2.66565)
(8.65903 0.0922602 0.521782)
(12.9639 -4.31017 3.68306)
(4.22827 -1.84749 1.26064)
(10.3822 -1.17866 -1.36815)
(9.18707 0.477325 -0.0993416)
(9.24919 -1.38981 0.332587)
(21.2656 -1.7447 4.71546)
(10.3889 -0.813646 2.77682)
(8.85803 -0.062583 -0.111983)
(9.26523 0.418805 -0.0561431)
(6.39684 4.97278 -4.99216)
(9.36122 3.80052 -4.939)
(11.7624 0.453191 -3.13877)
(8.86833 0.292434 -0.221333)
(8.24059 2.23134 -0.0412738)
(4.01008 -0.960494 -1.96549)
(7.47621 1.79642 0.0614552)
(17.2824 -1.10145 2.0769)
(17.4929 -3.92886 2.12086)
(8.10104 0.437592 -0.100176)
(12.4651 5.05266 -6.82029)
(14.4113 0.448926 2.57482)
(13.7555 6.27721 -5.25001)
(16.3225 2.84504 -0.839489)
(10.1982 0.444947 -5.6001)
(7.97922 0.553747 -0.019841)
(3.18666 -0.54763 0.989277)
(16.9283 0.631318 4.46827)
(15.1733 1.3771 3.26502)
(13.2462 2.16547 2.01157)
(7.63458 -1.86776 -0.296106)
(7.63249 -0.437403 -0.975842)
(15.2317 0.895603 3.42791)
(15.3553 -0.375371 3.34207)
(0.381185 -2.70858 -0.60909)
(6.11916 -1.64767 -1.41965)
(2.26844 4.049 -0.503898)
(13.5039 -3.56132 2.72489)
(9.01207 0.16631 -0.00788064)
(8.32144 0.316877 -0.0530079)
(3.42694 1.1877 1.61203)
(0.680197 0.955367 0.0461713)
(4.60175 -1.30876 2.58976)
(6.09904 -0.0267446 1.00401)
(7.1661 -0.559667 -0.282444)
(10.0108 0.785532 2.34624)
(10.1609 0.282494 0.78265)
(8.38985 0.380474 0.0102584)
(3.82199 4.05925 0.741816)
(19.9097 5.46775 4.87821)
(6.06114 -0.500926 2.62413)
(9.30203 0.899184 1.6486)
(15.9011 1.53857 2.80013)
(7.35076 2.35414 -3.28513)
(12.2206 6.35465 -5.61743)
(5.13117 2.8078 -1.09329)
(15.4716 3.17296 -5.37776)
(9.96021 1.76563 -5.63004)
(9.52954 2.60357 -4.96949)
(12.6623 2.52177 -0.139764)
(11.8536 1.74766 0.146438)
(7.93209 -1.60617 4.713)
(4.64759 4.24784 3.23657)
(2.21986 1.90333 1.74008)
(10.1623 3.48268 -4.52316)
(2.2341 2.81411 0.282495)
(14.1076 3.18431 -5.38541)
(1.7521 0.179203 -0.0653363)
(16.7894 4.74475 3.32627)
(8.6528 0.713235 0.0172673)
(2.86795 5.15485 -0.232191)
(8.48513 1.22178 -2.73848)
(17.6181 1.85946 -1.81885)
(3.66342 5.91409 0.3165)
(9.24697 0.0723229 -0.00223215)
(6.95126 1.11644 2.3263)
(8.37192 -0.361335 -2.11063)
(9.03982 2.22798 1.33038)
(4.6492 1.19044 1.86161)
(6.43231 -2.05514 -5.52426)
(11.975 0.2264 -0.66722)
(12.167 -1.42526 5.81434)
(7.09458 -0.0249998 0.361995)
(14.7195 0.347495 3.98003)
(3.80754 3.23236 -0.681908)
(0.924558 5.27491 -1.06583)
(18.4114 -4.28376 5.75837)
(16.5202 3.60009 1.65422)
(0.169054 1.25296 -0.955718)
(16.2415 -1.2004 1.64694)
(16.0374 -0.938828 1.77916)
(4.0082 0.92551 -2.54633)
(3.4534 0.60601 -3.48658)
(5.86648 -8.89432 3.90359)
(8.38236 -7.90942 4.61393)
(14.0898 5.70291 2.52973)
(-1.58954 2.38154 0.889339)
(2.40185 2.13868 0.67368)
(9.92642 0.801165 0.0461121)
(5.71036 6.20891 2.8388)
(5.42527 4.09073 0.279269)
(6.2635 2.47899 0.407043)
(2.91197 7.20188 0.384356)
(4.86731 2.522 -0.18324)
(2.0443 1.70501 0.488617)
(3.26322 1.51444 0.758211)
(3.0813 5.19349 0.76047)
(4.88093 5.3884 -0.112617)
(5.73198 0.30145 0.658827)
(3.60498 0.908006 0.412277)
(7.48287 -1.69466 2.41682)
(1.33997 4.94933 -1.08008)
(0.630921 2.03072 0.00836137)
(2.08213 1.94071 -0.214819)
(2.55255 0.810889 0.148689)
(5.11001 -2.30313 1.97791)
(11.4149 1.30468 -7.45393)
(2.80963 3.15449 -0.239037)
(1.75411 1.98046 -0.0377719)
(9.03703 -0.282776 -5.77939)
(3.27924 2.43101 -1.07309)
(7.5466 3.70247 2.14325)
(16.3577 2.38162 -6.5654)
(-0.517845 2.61193 0.8726)
(15.2201 3.92684 -1.21823)
(14.6112 6.17357 -3.8475)
(19.4522 1.58863 1.49867)
(15.2805 -2.80058 -0.113955)
(15.4925 -0.645917 0.299286)
(16.6675 -0.852423 2.80874)
(15.9039 -1.76356 -2.04789)
(14.5595 0.468515 0.331044)
(16.5775 -2.95417 -0.379323)
(16.7788 1.38406 2.72125)
(16.7222 1.10428 2.18255)
(5.15703 3.20568 0.591664)
(14.0467 -1.09646 2.46214)
(7.92663 -1.38123 -0.104665)
(20.1471 3.2276 5.80257)
(1.50066 1.29981 -0.601205)
(4.17832 1.47027 0.683535)
(-0.69934 1.25522 -0.315607)
(11.8335 2.8838 1.63442)
(11.826 0.066433 1.159)
(6.77482 0.995009 -1.08854)
(6.24136 0.653869 -1.09478)
(9.71819 -0.392987 -0.256394)
(15.6429 -5.22903 7.66824)
(6.30493 -0.769297 2.51958)
(5.77969 -0.361741 1.65024)
(0.956918 1.1758 -0.723907)
(4.20809 0.557033 -1.86062)
(4.96314 -0.232865 -1.96164)
(7.5789 1.45253 1.82241)
(13.8268 -4.16845 2.30356)
(14.8747 -1.63257 -1.7712)
(14.4365 -0.513339 -1.54171)
(2.71486 0.832911 -1.02001)
(14.0947 2.82848 2.57799)
(8.56706 -2.82438 0.451506)
(9.43028 -2.34398 1.57779)
(-4.9405 -0.29282 -0.230688)
(10.1649 1.39167 0.0219637)
(-0.0373742 2.17791 0.198776)
(-0.802521 1.664 0.524273)
(9.60208 0.0177581 -1.85332)
(16.6789 3.96068 -3.47365)
(19.4907 4.18347 1.94663)
(9.40538 -0.0251418 -0.016612)
(4.5592 3.12319 -3.21377)
(6.67954 3.26468 -3.71391)
(8.24974 -0.759164 -0.186107)
(14.3801 3.06743 5.60716)
(14.2015 -0.315427 -0.597132)
(15.3468 -2.40527 -0.841386)
(5.94542 0.767896 -3.37532)
(7.7345 2.56483 0.0216118)
(15.1005 -0.961044 2.45967)
(13.8723 -0.863792 1.71831)
(6.73888 -1.92162 -0.162039)
(9.34606 -0.378857 -0.0890262)
(13.2766 3.66875 -4.14366)
(9.8161 -1.99547 -1.57751)
(12.2656 -2.88304 -1.4414)
(12.9698 -1.18076 -1.0326)
(11.6552 -3.51887 -2.07646)
(1.45517 -1.20104 0.881839)
(17.3816 -4.65911 1.84293)
(17.0028 6.49626 0.710085)
(4.99888 -0.194125 -1.4668)
(0.366022 4.72031 1.01774)
(15.8482 4.51475 -4.72038)
(9.37895 -3.86994 4.39293)
(13.4528 3.05003 2.34558)
(6.11988 -1.72327 -1.13279)
(7.95962 -0.892987 -1.83345)
(11.2516 2.16568 7.73797)
(13.1547 -2.11832 2.92236)
(9.76131 0.768767 -0.0172688)
(21.5369 1.58104 2.21601)
(15.2717 2.82675 -6.44496)
(17.8497 2.93463 -4.14305)
(12.5609 -2.58074 0.725761)
(6.79643 4.59486 0.747852)
(9.07737 1.60715 0.151839)
(-0.579018 2.71451 -0.0219277)
(-0.147864 2.08753 -0.743851)
(7.3598 -0.48526 -2.02967)
(5.07357 0.594482 -2.59697)
(8.8653 -1.22287 -4.17471)
(12.1541 -1.84993 -1.19792)
(13.3613 3.02449 0.187877)
(17.2345 -0.206458 2.45303)
(17.2488 1.04651 2.32639)
(14.1965 2.59607 2.72797)
(10.0498 1.00567 -1.77014)
(11.0362 2.66282 0.257521)
(13.653 -2.36714 7.71839)
(9.84536 0.0415715 -0.291291)
(9.98182 3.6397 0.106063)
(10.7349 -0.193291 -4.39968)
(9.23648 4.86852 -4.68561)
(8.85598 -0.113715 -0.0636949)
(8.76664 0.204249 -0.269278)
(7.64994 0.169777 -0.65807)
(8.38345 -0.165801 0.00333871)
(16.3509 -0.234986 -0.148991)
(2.93982 0.870824 -1.58106)
(13.2333 -0.459105 -3.2299)
(4.56402 -0.637005 -1.20357)
(6.11882 1.36529 0.0336077)
(10.8927 0.984795 -6.39159)
(10.7169 1.73135 -4.90516)
(8.83985 0.0108621 -0.0896957)
(7.18387 0.803995 3.39181)
(8.23671 0.568515 -2.48641)
(1.95889 -2.62446 -0.546138)
(14.0666 4.08226 0.0130484)
(14.1149 5.38687 -0.00748047)
(18.4346 2.17366 -4.61404)
(15.9065 3.62632 5.07208)
(12.7355 6.84715 2.16031)
(8.24161 0.424812 -0.0242591)
(16.9588 0.283236 3.37286)
(15.3449 1.40504 3.51702)
(-0.745779 -0.472543 -0.0482312)
(8.5681 -2.60849 -0.0683011)
(1.11322 1.33114 0.494162)
(6.86087 -2.93844 -1.87792)
(9.33378 0.363297 -0.11606)
(8.34551 2.64242 -0.257852)
(17.0335 1.6179 0.56499)
(14.3442 3.99599 -3.99886)
(17.9717 -5.11817 1.29936)
(17.0813 -3.0974 -1.08927)
(4.99669 -0.508763 -1.25191)
(8.1875 1.63725 -4.60438)
(8.56189 0.413374 -1.68588)
(6.29197 -1.84851 -0.70858)
(8.60699 0.540937 1.19909)
(9.09323 -0.941062 1.78225)
(12.9781 5.64525 -3.75009)
(0.877852 5.58217 0.592485)
(8.75762 0.133689 -0.0180658)
(10.0193 0.35723 -6.34795)
(2.20699 2.08356 0.699952)
(14.404 -1.6429 0.4775)
(9.04842 -0.0585586 -0.0648605)
(10.9424 5.16195 1.2323)
(10.2559 5.4603 0.811547)
(15.0797 4.6972 0.820008)
(0.378617 1.21287 0.704186)
(-0.1135 0.912083 0.811768)
(1.33201 -3.90215 0.240819)
(8.57715 -2.27946 3.08168)
(9.4521 -3.64756 2.86609)
(9.52865 -1.5963 0.507168)
(11.2189 -1.58311 1.24479)
(13.1032 5.61271 0.134594)
(0.397207 0.163014 -1.97746)
(9.07912 0.0765058 0.0268403)
(11.3183 -0.0218927 -0.261587)
(8.34608 0.753983 0.0179297)
(8.77761 0.339515 -0.0268642)
(9.99052 2.11413 -0.686338)
(8.25526 0.172553 2.06445)
(-1.79764 0.479574 -0.0679555)
(-0.871322 1.6791 1.63995)
(9.00055 1.06908 0.0206254)
(-0.387514 0.0724236 0.580042)
(8.75187 0.202937 -0.501281)
(11.6297 1.61509 5.18459)
(10.9431 2.54055 3.83339)
(7.83271 -1.73337 -0.222004)
(7.73512 -0.510027 -3.17089)
(12.0875 -8.21153 4.43767)
(2.65697 4.99666 -0.162057)
(15.4046 3.77644 1.19087)
(13.1254 -7.433 2.21549)
(9.73164 -2.98076 -1.35008)
(5.71591 -3.22665 0.644108)
(12.3006 6.06455 0.688962)
(12.5274 4.87373 -0.363133)
(4.55509 -0.926904 -0.208392)
(1.45882 0.155328 0.521784)
(8.77176 0.925536 -3.09357)
(6.34027 2.99268 -2.51554)
(11.8854 1.34484 -3.28266)
(9.9027 -1.78916 0.10667)
(16.5168 -2.54193 -5.25154)
(-1.72373 2.75017 0.218184)
(10.2504 1.29639 0.149716)
(2.12451 0.139707 -1.02136)
(9.06408 -0.0512937 0.0162809)
(2.71693 2.00776 0.222952)
(14.2648 5.49403 -0.400025)
(8.08068 0.124854 -3.01116)
(10.9391 5.43355 -7.24772)
(13.0854 -2.39287 -1.81553)
(8.5489 1.70108 -4.06475)
(10.1786 4.93927 -2.95509)
(16.9716 1.43635 4.11958)
(15.3986 2.53066 -0.501664)
(8.78464 -0.744048 0.000746744)
(8.77938 -0.455124 0.0155741)
(8.98048 -0.204712 -0.0299463)
(3.6285 0.773703 -0.171318)
(3.99879 5.3608 -2.32582)
(9.3232 1.98 -6.90212)
(8.18868 0.449784 -0.00250142)
(17.051 -1.91225 -4.26166)
(5.20014 0.935395 1.4287)
(9.78623 0.407686 -0.00545672)
(6.56209 0.788346 0.673897)
(10.3485 -3.50986 3.33004)
(8.47545 3.72623 2.56044)
(8.49753 0.293054 -0.0246866)
(7.37357 5.62525 -4.32804)
(16.5493 -0.365058 0.0947027)
(13.5669 1.32037 -1.0501)
(8.96022 -1.14691 -2.48323)
(5.87861 -7.95985 3.82574)
(18.8498 -2.45649 0.79185)
(8.86575 -0.384317 0.105427)
(12.7308 0.432766 0.108676)
(-0.856874 0.0299009 1.94324)
(7.62823 1.69701 0.0975344)
(-0.140295 1.25867 0.41713)
(2.66092 -1.40588 1.80334)
(9.1243 0.894759 0.00574583)
(15.586 -0.59895 2.00316)
(10.2369 -0.188088 0.0774311)
(2.29219 -1.84549 -1.15473)
(16.7831 -1.20121 1.4959)
(6.72971 -3.69929 -3.01364)
(-0.103276 1.14939 0.822465)
(11.2811 2.08018 -5.4108)
(16.4211 0.309098 -2.76058)
(3.92515 2.61894 -0.399716)
(5.57251 1.65055 1.79812)
(2.77586 0.666969 1.0781)
(3.92914 -1.22085 -1.4486)
(14.5923 -2.14512 0.125857)
(8.32619 -0.242695 0.0139126)
(14.8661 -0.895787 4.05133)
(8.377 -1.68486 0.215238)
(15.5297 -1.22014 2.82869)
(1.96132 0.74784 0.342592)
(11.4889 -0.165036 -0.307871)
(10.584 -0.40118 1.5511)
(11.902 -4.54698 3.71049)
(11.4702 3.77349 -5.46392)
(12.6008 2.46549 -1.23853)
(8.91465 -0.368692 -0.145386)
(-0.0723476 -0.122169 0.760284)
(12.8372 2.24992 2.85296)
(13.1538 5.02503 0.146075)
(11.6 2.29658 -6.29416)
(13.0538 2.0923 -1.11785)
(4.96878 6.16914 0.0990954)
(8.15453 0.631179 0.0216015)
(8.73929 -0.712154 -0.341847)
(8.58784 0.426191 -1.03115)
(8.9137 0.858362 0.0466157)
(9.7124 -0.13946 -0.0749865)
(13.8357 0.375298 -0.905615)
(11.8026 0.708079 -0.284383)
(14.2692 1.59046 -2.99005)
(15.6877 -0.770686 0.195489)
(10.71 -0.231988 0.0541437)
(4.68277 -1.11577 -0.333973)
(2.6071 0.906315 0.155313)
(1.27938 -1.4359 0.30734)
(6.02555 1.88094 2.01209)
(0.129989 -2.00544 -2.18817)
(7.32308 0.362397 0.73016)
(9.45132 0.706186 0.118523)
(7.92932 3.28988 -0.1687)
(9.23353 6.78202 -5.52429)
(9.38964 -3.02335 -0.273747)
(8.3748 1.61914 -3.70515)
(0.329623 0.0197432 -0.0589995)
(12.1817 5.3666 -0.513857)
(10.7461 4.6549 -6.06644)
(12.4484 4.90087 -6.26686)
(11.8483 0.0195799 -0.305535)
(2.43386 -0.247376 -2.66433)
(15.4598 4.94632 -0.204837)
(15.5925 -0.793751 -3.73933)
(7.74604 2.95005 -0.00795693)
(7.13184 2.47997 0.814265)
(3.86177 2.6224 0.455638)
(6.36306 6.02654 0.16811)
(3.91412 -2.86718 -0.203554)
(4.58627 1.55045 -0.275026)
(5.28221 -2.54865 -2.21928)
(2.09141 0.165037 0.740688)
(5.45063 1.67074 -2.39644)
(-1.51023 -0.82559 0.0216134)
(1.60684 -0.0632086 -0.0457851)
(8.42757 -0.448462 -0.695814)
(7.78812 -6.43894 0.531091)
(10.2966 -6.19904 1.28069)
(0.592842 3.73795 1.2082)
(7.74998 -1.84623 3.67364)
(7.12371 -1.01753 -0.823707)
(0.377729 1.41245 0.594415)
(5.24117 3.5987 1.05526)
(9.80924 0.574119 0.0124206)
(0.499805 2.43277 0.227368)
(12.55 3.26861 -1.51462)
(7.56834 -2.2492 3.47555)
(4.49139 -0.42672 -2.04027)
(10.5337 -0.406837 0.451531)
(2.61874 -1.9352 0.150989)
(5.9532 0.160802 0.708265)
(5.92143 1.52154 -0.0432836)
(7.91091 -1.73428 2.62541)
(13.4075 -5.64885 4.51588)
(10.9622 -4.73429 0.889956)
(18.9454 5.26667 6.34367)
(2.91269 -1.11626 0.275769)
(16.2147 7.69594 -1.24976)
(7.58902 -2.33523 -2.12027)
(5.73711 0.817081 -1.07997)
(9.56573 -0.233455 -0.153648)
(9.52245 0.374899 0.0247108)
(8.47454 0.358676 -0.0341573)
(8.79839 0.668946 -0.027292)
(11.2482 3.72485 1.13821)
(7.60951 0.538929 -0.0921955)
(8.0965 -0.0109447 -0.170471)
(-0.687186 0.5171 0.604303)
(10.1271 1.95801 -1.22195)
(4.78429 1.54415 1.70116)
(9.18147 0.28639 0.0248475)
(10.2041 -5.22293 2.54344)
(7.70325 2.58776 -7.27981)
(19.0521 -1.34048 -2.5498)
(3.67313 6.38172 0.250584)
(5.57538 2.61573 0.191939)
(5.09154 6.37161 0.264501)
(1.2238 2.36779 0.921272)
(0.971539 2.48646 0.260839)
(5.60002 1.2309 1.21213)
(3.21524 4.22493 0.115702)
(12.5038 3.93821 0.32952)
(12.1454 3.96996 -0.526456)
(5.21056 3.43399 -0.600851)
(14.3449 0.875033 5.48236)
(8.60712 0.54729 -0.694113)
(2.64496 1.6139 0.620826)
(13.5947 1.33948 -6.22135)
(9.24234 3.68951 -6.12203)
(11.0236 -2.89498 2.5898)
(8.28786 -1.74991 -0.219532)
(17.8167 0.530902 3.98666)
(1.16811 -1.10548 2.24287)
(19.7884 0.0865809 3.7134)
(20.8395 0.135013 4.67315)
(10.0264 -0.0703276 -0.21665)
(-3.03756 0.916363 2.2195)
(-0.843282 2.19119 3.98968)
(2.03913 1.87114 0.373866)
(9.53355 -3.28071 7.05648)
(15.9951 4.51315 -3.4326)
(14.2363 -3.24037 -5.75199)
(9.00717 0.372859 -0.19623)
(15.645 -0.644092 3.70777)
(4.54802 -1.5242 0.236633)
(15.6493 -1.59724 0.393326)
(-0.0149591 3.11094 0.970183)
(11.3168 -0.194618 -5.48316)
(9.01669 -0.359202 -0.0498254)
(3.28776 6.13857 1.29704)
(0.844815 2.28688 -0.984349)
(2.79154 -1.64614 -1.3168)
(0.551035 1.26816 1.3722)
(7.86423 2.14361 -4.67201)
(8.20159 4.13758 -4.29554)
(9.7654 0.721338 -0.0185276)
(12.171 1.87576 -6.81552)
(21.619 -1.57039 4.17955)
(12.0614 0.672162 0.114435)
(11.726 1.46176 -3.05122)
(9.62804 0.180157 -0.140264)
(8.75755 0.275415 -0.0375434)
(10.2705 0.1031 -0.0633232)
(11.0173 1.73917 -5.67061)
(2.50521 2.52857 -0.975747)
(8.25182 -0.514848 -0.534698)
(0.419498 -1.70959 0.730475)
(6.46742 0.470916 -2.63952)
(11.8135 2.1841 -6.22336)
(4.59464 2.43046 0.866882)
(0.597711 1.07497 0.501438)
(-1.16947 0.683217 0.431475)
(8.95631 0.888295 0.0273128)
(8.55257 -0.39013 0.0178859)
(1.3217 -0.915961 1.05725)
(12.0142 1.36778 0.317165)
(5.88958 -0.85631 -3.0244)
(9.58793 -1.96522 -0.0351149)
(1.04562 3.57949 1.23268)
(10.2338 -1.07068 -0.158701)
(9.49264 0.729106 -0.614626)
(8.57021 2.06121 -0.580448)
(12.8355 0.342251 0.0899447)
(15.0945 1.30529 1.00642)
(1.77724 2.94136 -0.952132)
(2.73175 -0.816247 -0.357441)
(11.05 0.25032 -6.13936)
(1.82082 3.50623 -0.0210743)
(15.5599 -0.834763 -0.592951)
(7.55603 -2.67736 0.00296436)
(14.8197 5.90781 2.37964)
(8.95899 -0.164641 -0.00461324)
(14.993 1.51242 -3.39686)
(13.0552 2.53308 5.07973)
(6.75777 0.902872 2.98789)
(7.08231 -0.600549 3.26145)
(9.03026 0.363715 -1.77767)
(5.79781 -0.569117 -2.42043)
(6.50925 -2.73472 -2.53607)
(5.36775 -1.10054 -1.37473)
(5.59898 1.08908 -3.50666)
(19.2048 -0.0106671 5.40031)
(8.19521 1.49154 2.02994)
(5.39527 1.70446 0.556337)
(16.5126 -4.47588 8.66389)
(7.32132 -1.38855 -0.669157)
(-0.302493 1.56292 0.336039)
(18.7785 1.7683 6.63913)
(5.72325 2.52935 -1.46142)
(13.1177 2.50123 -6.70139)
(8.97448 0.370598 -0.168964)
(1.37287 2.57458 0.200821)
(0.202281 1.53798 0.0905214)
(11.2343 -0.745994 -5.1319)
(8.96919 -0.888049 -0.109313)
(11.3464 2.48456 -0.157419)
(10.1599 1.1804 -5.3737)
(0.941742 3.45606 1.63413)
(1.09615 2.72225 1.18238)
(7.10518 -2.12291 0.563326)
(-0.0310386 3.02749 2.15263)
(4.75941 0.658158 -3.24489)
(13.7153 2.8496 -6.84703)
(7.51852 -0.225772 0.382828)
(8.61837 1.36556 0.0430503)
(6.11399 0.53762 0.097781)
(9.5327 3.31245 1.30303)
(8.86477 0.0595481 -0.0870786)
(13.3088 2.71296 -0.0998337)
(13.5646 3.51748 0.013389)
(8.66116 0.042818 0.53002)
(5.44804 2.35675 -0.761121)
(9.46202 -4.03672 3.65344)
(5.35005 -2.48476 2.80044)
(1.22652 -0.449694 -0.268872)
(15.2832 3.47835 -6.7139)
(0.593453 2.35109 0.0994813)
(14.2991 3.25962 -4.05106)
(11.7693 5.1267 3.29656)
(11.5288 5.55018 1.81236)
(8.91435 0.296699 0.00235488)
(13.7667 5.86863 0.319572)
(10.1508 4.27 -6.6813)
(12.4157 -0.867897 3.01159)
(6.30644 2.27301 -0.750819)
(6.17424 2.2587 -1.45688)
(14.5922 1.7005 0.322631)
(5.88784 -1.34739 -0.514845)
(12.7343 -0.484939 -7.11845)
(16.3541 1.94763 -0.32555)
(7.76915 2.99376 -3.76236)
(8.80905 1.05822 0.0395961)
(10.4843 3.72725 0.40603)
(6.78289 0.149582 4.59251)
(7.7252 2.16763 0.0628634)
(4.44098 6.04285 1.80236)
(3.31255 6.53295 1.55181)
(15.3807 0.836435 -7.86395)
(9.41373 1.32186 -3.58548)
(9.85321 1.51129 0.260779)
(8.63081 3.5192 -3.2758)
(8.38779 3.14448 -2.75449)
(1.73501 3.3462 0.945666)
(9.04208 -0.497428 -0.132779)
(2.79501 0.40994 -0.122301)
(8.24797 0.445626 3.35561)
(17.6009 0.675222 -4.58276)
(16.5189 2.63889 -1.37315)
(1.09746 0.289571 0.475873)
(13.3137 3.09814 -2.66323)
(18.0196 3.06138 7.60679)
(17.8842 1.8519 8.37318)
(15.1655 -1.0217 4.37684)
(10.4731 2.49402 -5.28854)
(9.39433 -0.913934 -4.42107)
(9.18366 -1.83291 -3.7365)
(6.28148 -0.299991 -0.606588)
(10.3748 0.694318 -0.0369262)
(8.51829 -3.53724 -1.43683)
(1.45695 4.96696 -0.339038)
(14.2707 1.10141 -6.2934)
(12.0971 1.05876 -7.22075)
(13.6652 3.14467 -3.94999)
(0.0243419 0.721771 0.780965)
(-0.0238593 0.100158 1.00002)
(2.94668 3.20195 0.995262)
(1.54364 3.67431 0.395696)
(0.409683 2.87989 1.30984)
(13.9902 2.89815 1.91424)
(3.04823 3.06719 -0.564623)
(3.00048 -1.2172 -0.162049)
(9.62877 -3.79956 2.21854)
(9.83826 -2.24705 0.329283)
(12.3526 1.35909 8.10903)
(7.17352 2.55695 -2.26598)
(2.98452 0.702732 0.392779)
(2.01273 0.424065 0.197848)
(9.16348 -0.0816963 -1.91219)
(8.01789 -4.43477 -0.692265)
(10.7621 -2.39218 0.821433)
(13.4031 7.52993 -0.450231)
(7.55983 0.553033 0.937837)
(4.23252 -3.75154 -4.41287)
(4.71107 0.417462 -2.46698)
(6.58634 0.211213 1.17307)
(4.39014 0.869943 0.191884)
(7.85557 0.632508 0.666017)
(8.52462 0.510223 0.501647)
(13.0582 -0.474998 -1.43656)
(-0.962941 3.54845 1.13213)
(5.13811 5.1179 -0.165549)
(0.616211 0.762437 1.41058)
(0.0440158 -0.219581 1.12257)
(0.179984 0.887147 0.563924)
(9.45926 -0.480179 -0.0509322)
(0.85337 -0.274334 2.17718)
(9.26599 0.487683 0.0176612)
(2.0813 3.70502 -0.0336538)
(2.20033 1.73004 0.0298728)
(-0.137969 3.00006 0.0861297)
(2.64768 -2.20182 0.887296)
(-0.229552 -7.04577 2.52472)
(5.33078 1.38155 -0.200901)
(9.78294 1.04384 -2.62243)
(0.95381 -0.908467 -0.966103)
(5.26981 -0.510197 -1.8352)
(1.8704 0.269173 -0.322848)
(5.14385 1.8325 -2.94035)
(4.00557 -0.500364 -0.552836)
(7.79816 -2.59502 2.98891)
(6.47397 -9.78512 2.31022)
(3.00179 1.82529 0.581311)
(-0.482047 1.02745 1.20386)
(9.62683 1.63511 -1.62702)
(7.37503 -0.964876 -3.57463)
(7.65742 -3.33473 -4.60833)
(-2.23145 -0.526511 1.74071)
(11.7665 1.64717 -4.41668)
(14.3019 4.29748 1.9784)
(-1.49711 1.39298 0.501215)
(6.36907 0.344904 -4.47734)
(16.4482 -0.951539 8.28092)
(13.1278 -0.700894 7.95721)
(14.3061 2.96295 1.23523)
(14.0147 1.83107 1.52537)
(12.8431 -4.16802 0.0554423)
(8.63992 -2.09384 0.212791)
(6.35772 1.00579 0.685542)
(15.4869 0.129501 0.0244732)
(2.32356 4.69154 -0.138609)
(9.62693 -0.602854 -2.4032)
(6.56236 -2.48518 -0.250171)
(6.72299 -1.68586 0.156122)
(0.643833 1.50402 -0.437431)
(4.68747 -0.796107 -2.01675)
(7.93005 5.65251 -1.99437)
(9.70335 -5.38233 0.601327)
(9.71426 -0.548716 1.46376)
(5.747 -0.929825 -0.574907)
(7.81275 -2.27422 0.605315)
(1.49152 1.56456 0.591295)
(14.1976 -3.08238 -1.19618)
(13.4784 0.605495 -2.20491)
(6.04766 0.793907 2.40019)
(7.76685 1.60843 -0.0168793)
(7.3569 -0.472676 -0.740228)
(18.0451 -3.17059 4.45941)
(1.35072 1.75296 0.376563)
(8.65001 1.14423 -4.85931)
(14.6566 -0.298595 7.80447)
(12.9284 0.689616 7.21403)
(15.2324 4.37913 -5.65567)
(14.2634 5.86004 7.2072)
(3.34319 0.100548 0.020567)
(20.0334 -1.54011 5.15915)
(17.589 0.0319231 -1.41808)
(15.7342 0.814323 -2.07004)
(14.4698 -0.0644541 -0.973499)
(4.3029 1.84972 -2.46623)
(11.4574 -1.03968 0.799915)
(13.3253 1.84279 -2.31999)
(19.2339 3.58771 8.68054)
(9.53424 0.818828 1.73906)
(5.63644 -2.11811 2.35874)
(-0.799305 3.2276 1.77582)
(4.99602 -0.761659 -1.92607)
(8.50497 0.0240201 -4.99775)
(1.56085 0.658366 0.50533)
(15.8215 5.0348 4.0828)
(12.7666 -0.860419 0.0492778)
(9.4177 2.03183 -6.45511)
(9.04393 1.23064 -5.59047)
(4.39391 0.55512 -4.68164)
(8.82914 0.214693 -0.0206731)
(4.92206 2.80512 0.899672)
(17.0695 1.05799 3.7981)
(11.8842 -0.269943 0.0389685)
(6.44327 -3.27502 0.646305)
(9.23377 5.39918 2.1015)
(2.04892 5.354 -0.248702)
(9.17164 0.348887 3.13028)
(8.61697 -0.934141 -0.57279)
(5.63804 2.0152 -0.223742)
(8.96118 -0.201494 -0.0728142)
(3.38397 -3.23655 -2.39077)
(8.49813 0.304807 -0.401176)
(3.92551 3.10344 -0.0667183)
(2.92357 -2.22679 -1.62206)
(7.09456 -0.423108 -1.85854)
(-3.27861 -0.598583 1.18674)
(5.72764 -0.635233 0.0118872)
(0.292967 -0.162727 0.926082)
(6.7202 -0.152448 -0.100434)
(5.70308 0.514714 1.35362)
(11.8503 1.16204 -2.46064)
(8.30826 -0.659883 -0.51023)
(1.54762 1.26199 -0.0715286)
(10.2747 4.06097 -5.42221)
(11.536 3.86637 -5.8182)
(12.9109 2.14823 -4.65458)
(7.72786 -1.49357 -1.82182)
(15.0279 2.34666 0.16258)
(13.7723 -5.98771 2.49586)
(7.21696 0.769165 -3.12954)
(9.14085 -0.461613 1.11277)
(7.81195 1.46545 -0.340034)
(-1.53561 -0.283778 0.0125036)
(4.83348 -0.131504 -2.75755)
(14.4165 6.26588 -0.0334499)
(8.62418 -0.18837 0.000586791)
(8.33425 0.00890204 -0.0187285)
(2.53068 3.7996 0.567631)
(15.1178 2.27008 -0.757329)
(4.74363 1.45586 -4.91847)
(7.27553 0.463544 1.29517)
(3.31475 -0.0939095 -2.92783)
(14.6775 3.71279 -1.54744)
(12.7519 3.3582 -6.15814)
(4.8656 -1.91271 -0.00137486)
(5.02388 -3.63822 -0.187312)
(12.7824 3.87683 0.820275)
(13.8303 0.275234 -0.433763)
(3.59717 -1.02969 1.62935)
(5.7114 -1.89207 2.24294)
(9.68931 1.94365 -2.63852)
(8.14256 1.3206 0.0393438)
(12.0156 -1.03019 -0.838333)
(4.81444 1.19253 0.555297)
(8.25821 0.34317 0.00366648)
(8.46765 0.786917 -0.0573375)
(7.64789 0.890986 -1.42205)
(18.0031 -4.67644 6.08879)
(6.29705 6.53439 -2.20413)
(14.7854 3.74449 -1.11118)
(7.81568 1.03614 -3.84857)
(11.4321 0.871539 -5.55818)
(1.81668 2.34157 -1.72829)
(11.0461 1.9196 6.72329)
(9.48237 -4.68219 1.65632)
(8.72443 -0.900303 -0.0638957)
(20.8565 0.562468 1.38082)
(23.2883 -0.505735 5.49742)
(7.78043 1.98321 -4.17918)
(9.89523 0.0338271 0.0314121)
(6.83116 3.94679 1.08792)
(3.04103 -3.60356 4.98886)
(8.79327 4.7761 -5.04873)
(9.02018 0.162106 0.0246347)
(14.8188 3.63591 -3.75035)
(9.61738 2.67466 -5.02758)
(3.89717 -3.48192 -2.27064)
(12.53 5.49407 -0.596027)
(7.81346 -1.11272 1.87061)
(3.54646 -2.85043 0.764158)
(-0.446888 3.04368 0.440592)
(12.6233 -6.1998 1.37623)
(7.46333 1.03332 -4.22579)
(8.26743 0.612338 -4.79732)
(14.2097 4.07235 1.99473)
(14.5409 3.46895 2.14478)
(-0.461281 4.20586 0.71404)
(8.93362 -0.0366026 -0.0522531)
(8.62078 3.88474 -4.49784)
(5.49402 -1.19961 0.463327)
(6.35837 1.15223 0.457086)
(3.626 0.129067 -2.97818)
(6.96654 -0.733796 -1.90785)
(4.23002 -1.99219 1.66557)
(10.2045 -0.0726539 1.75387)
(5.97896 0.131567 0.0623584)
(13.8054 2.9926 -0.577218)
(5.92667 0.885697 -2.49421)
(9.49113 3.48435 -5.31639)
(10.9358 1.66147 -6.0249)
(8.24539 -2.32531 0.335528)
(14.1374 2.35601 -5.13889)
(8.90764 -0.920924 -0.314554)
(11.5451 -3.07544 6.4731)
(9.15341 -1.29118 -2.60599)
(7.54263 1.4775 -0.899003)
(0.353191 2.4267 -0.222936)
(6.38618 -2.4622 -4.53454)
(7.56742 -3.1866 -2.3481)
(11.9699 2.2697 1.62921)
(16.2709 -1.66332 -1.72187)
(8.49953 2.73781 -5.07327)
(8.83719 0.479963 0.0103635)
(8.88816 -0.274528 -0.00105746)
(0.665571 2.49246 -0.0806963)
(2.99191 -1.2151 -0.0668032)
(10.4943 -1.07364 -0.332455)
(15.8157 1.11212 5.59281)
(12.0144 2.42126 -5.70663)
(9.27371 1.39998 -0.139351)
(4.44941 5.47848 -1.2289)
(9.0252 0.346123 -0.0930793)
(5.48133 5.02963 -0.700157)
(5.52973 1.2113 -1.40139)