/*--------------------------------*- C++ -*----------------------------------*\
| =========                 |                                                 |
| \\      /  F ield         | OpenFOAM: The Open Source CFD Toolbox           |
|  \\    /   O peration     | Version:  2212                                  |
|   \\  /    A nd           | Website:  www.openfoam.com                      |
|    \\/     M anipulation  |                                                 |
\*---------------------------------------------------------------------------*/
FoamFile
{
    version     2.0;
    format      ascii;
    arch        "LSB;label=32;scalar=64";
    class       volScalarField;
    location    "10";
    object      epsilon;
}
// * * * * * * * * * * * * * * * * * * * * * * * * * * * * * * * * * * * * * //

dimensions      [0 2 -3 0 0 0 0];

internalField   nonuniform List<scalar> 
308140
(
419.43
976.486
5562.19
2324.54
503.351
1923.74
552.233
3184.95
390.889
1914.27
1978.36
1538.66
2287.04
975.511
553.723
4138.63
4449.44
330.255
4610.66
1122.93
1493.98
2990.45
3668.58
388.72
1377.13
484.827
190.332
147.291
1184.99
775.595
8683.37
621.045
2172.99
2058.19
552.209
182.579
695.856
615.903
6869.24
1957.32
293.356
67.5783
1876.05
2024.52
868.766
2177.45
938.139
953.619
2278.79
1208.97
1420.56
346.577
447.963
1755.74
478.184
1245.4
5106.4
886.057
2198.05
2497.89
5647.01
99.2504
1033.36
2790.2
1895.37
686.427
46.9108
45.2754
247.161
1368.22
48.7661
807.684
283.622
48.2086
410.514
410.409
349.302
554.91
7382.69
3539.29
43.0203
2268.77
290.524
1447.28
215.644
648.256
587.564
138.456
259.903
258.283
1637.17
71.5031
406.152
727.654
448.366
337.203
233.45
224.455
1374.34
1116.31
910.207
2333.23
249.48
571.969
4349.84
596.963
527.55
428.205
3225.35
1234.84
1563.1
632.564
647.366
320.59
351.743
1866.73
93.7905
2370.65
933.031
262.413
2600.55
175.45
3615.02
3049.39
397.962
1094.01
448.336
199.877
252.986
3148.95
4972.85
79.5316
426.367
2210.26
124.734
512.429
2409.63
1670.98
1699.73
419.844
1351.26
575.438
1143.43
857.298
1697.62
2929.68
3057.12
5634.96
5413.1
457.021
492.893
2128.54
42.303
111.237
486.721
3343.8
379.677
1921.5
244.833
133.977
1078.59
242.771
223.595
6508.23
313.312
1173.12
1225.33
1090.72
222.07
400.908
255.124
1031.06
2202.7
391.549
432.398
564.431
948.718
1487.55
1937.72
446.592
2136.55
1553.76
1544.97
445.67
327.049
89.0515
372.004
248.315
5400.89
246.785
1255.61
1577.74
128.467
831.667
46.0706
3357.55
3696.82
2859.28
5285.69
6413.53
1592.57
726.818
2996.29
841.384
340
485.428
575.955
1801.84
1658.78
3280.7
1697.42
1293.95
949.794
322.413
804.212
1318.1
754.628
125.609
128.088
761.66
424.559
449.064
3459.62
3935.94
1370.67
650.388
4917.21
88.5778
796.279
652.155
2554.01
215.049
232.492
944.896
5331
4170.46
1102.56
386.149
1399.24
423.629
397.491
1781.8
706.846
2840.16
5515.24
1295.16
237.31
46.3109
7721.88
889.378
677.811
1589.49
307.532
3641.66
717.407
5465.93
5326.48
1174.87
321.777
4536.62
2637.14
619.684
173.966
218.81
2584.77
534.041
4998.23
707.769
406.825
464.296
220.38
732.29
1550.49
2883.89
1689.6
250.815
5308.32
1647.49
462.909
866.863
1414.99
1254.76
1169.7
45.6102
381.693
519.169
2084.72
3654.79
1195.64
577.137
344.745
307.941
356.116
365.35
200.637
173.736
1349.17
5884.49
174.347
4752.83
2232.66
412.048
482.04
40.556
43.4907
5249.49
2866.44
1560.1
460.844
226.511
2225.01
50.9515
345.129
496.658
1360.41
2137.88
285.878
181.575
2819.54
2239.38
1038.62
3819.86
613.988
549.267
536.416
1599.31
2871.91
2732.98
411.352
424.85
577.476
1093.25
36.9539
2890.13
138.93
69.9401
37.7448
247.807
813.492
54.6409
8597.2
1394.55
1426.84
401.487
51.7077
565.539
517.136
511.949
924.888
1856.26
1384.48
377.29
442.551
43.538
1325.74
1060.74
351.317
170.37
1729.83
726.531
575.389
424.855
545.961
1163.55
6449.83
3832.01
3557.15
449.818
200.856
107.438
3773.85
143.442
74.8427
397.516
5007.86
654.429
47.187
50.4256
376.828
906.676
113.514
1556.23
71.4591
573.237
152.681
205.986
344.234
2908.04
138.202
1197.7
1168.28
2934.87
1234.81
321.717
570.227
36.2268
38.8966
1046.15
154.926
1288.33
313.421
3460.83
2425.15
2257.82
5164.05
534.918
53.0689
1256.33
221.081
3377.74
1672.95
320.14
314.383
5874.23
77.8289
188.696
1768.79
475.128
470.521
292.347
3670.29
923.324
6153.18
299.954
509.99
1974.68
1944.17
207.465
531.13
2654.83
285.75
302.969
768.27
708.327
563.276
2126.8
301.864
241.878
590.186
650.209
2057.39
3628.72
792.667
440.802
3743.63
1134.05
5040.66
4279.8
761.46
804.971
5654.98
3816.25
5139.52
1283.93
1251.33
1375.02
875.156
42.0402
9468.97
235.273
1969.37
3242.7
127.394
1457.25
1068.01
128.071
2825.58
691.065
1545.15
1036.19
1454.17
711.287
202.397
180.233
324.795
211.554
609.896
433.535
1030.76
1001.72
380.787
1122.84
1285.74
818.478
3419.92
50.2255
1835.1
1808
203.653
43.2868
587.869
731.527
762.732
1022.95
3671.14
787.268
167.585
3012.47
42.1107
676.443
1014.06
7710.18
149.378
342.023
252.776
749.982
374.849
586.538
5496.02
315.962
7099.21
5866.5
5617.2
5932.54
247.583
177.343
1745.88
4654.29
354.482
373.211
400.349
325.947
514.836
4790.5
167.818
549.764
274.259
227.253
284.859
1245.29
546.332
820.077
163.391
1573.62
1451.45
3175.36
1802.27
258.455
1199.17
731.33
367.719
162.282
340.366
1072.21
604.571
48.4974
432.95
394.234
171.416
341.944
852.076
530.57
755.795
40.5853
5960.96
260.51
464.069
265.475
309.281
402.859
1961.25
51.4209
1344.05
254.326
2742.61
83.6885
67.9046
3854.6
2396.79
970.316
627.753
199.771
640.021
1518.47
201.655
2306.09
285.007
339.997
227.208
317.16
43.8212
938.245
911.305
6177.53
909.311
221.19
323.823
1510.2
5290.12
3265.81
303.518
479.465
562.99
1080.27
2811.48
298.13
187.315
1482.8
191
354.458
3430.26
4415.86
574.915
699.899
134.925
47.5169
6298.63
7819.14
1185.63
284.198
1492.34
742.89
659.018
528.213
264.674
4634.95
586.571
633.628
508.112
397.06
75.0272
58.7709
728.642
637.94
1448.38
1530.87
6506.09
50.7132
2846.2
173.083
391.066
283.749
475.676
549.623
4305.43
237.701
192.585
78.0087
44.1857
3229.4
284.828
1918.07
929.147
464.681
483.353
1504.62
3517.99
1587.94
949.988
779.385
844.792
590.363
741.094
550.544
805.883
7083.18
1932.69
2733.41
2045.51
953.096
397.952
293.766
47.3504
2277.18
1719.54
4740.24
1762.97
1565.83
930.65
105.182
2873.6
425.198
1611
596.676
1619.91
1322.84
313.107
213.094
49.9913
2640.49
3458.27
1405.8
5878.14
5287.98
1575.57
2320.57
3530.04
3755.47
1843.99
1749.39
35.9947
43.5506
660.888
2001.38
509.175
295.552
5024.14
6651.22
1520.91
1585.37
719.532
2896.29
42.5558
136.112
894.998
691.396
544.479
847.197
556.084
391.775
890.608
5092.92
397.058
293.383
658.744
261.126
2234.44
1896.84
59.4542
317.568
479.92
1470.17
602.222
286.426
5839.97
108.044
1209
136.506
677.747
406.013
1248.46
4116.87
5344.66
1713.82
214.347
42.3227
54.3627
556.833
6027.08
3213.75
62.3988
1144.13
1291.43
694.448
1634.52
456.283
1356.25
958.292
1165.59
2559.19
59.5369
378.624
56.4281
2751.1
656.42
59.1931
388.253
1043.02
705.113
651.978
583.286
1205.54
1418.39
1576.43
1236.42
1167.36
169.589
52.5231
1322.5
3024.96
5864.98
4700.4
993.402
1338.57
3113.05
2095.24
3623.48
42.2195
42.3831
2848.2
42.7772
179.045
464.904
1827.23
1530.1
1549.99
6996.91
6085.88
148.013
4455.12
5976.93
89.1924
1485.12
1403.7
386.749
1997.84
291.212
172.776
1689.15
1159.28
567.905
2506.79
6602.7
1354.08
357.867
2394.99
42.7622
400.433
946.912
52.8339
40.4678
768.241
2989.22
51.9584
49.0426
435.154
1200.85
441.219
313.871
571.26
601.936
2155.38
7366.64
840.592
318.692
496.604
1089.4
415.824
171.836
189.146
821.552
1495.26
992.113
892.486
706.586
1173.25
61.7227
64.7703
358.792
375.739
1008.26
61.1833
49.4912
1219.69
173.811
903.516
349.54
3684.94
109.692
725.875
4078.99
4355.1
5558.94
3850.49
600.457
342.647
1673.62
1569.19
94.1295
85.2272
267.764
2107.62
232.671
2095.66
210.541
546.549
717.159
1821.82
2088.74
2060.32
2089.97
265.611
184.371
7174.56
4610.45
537.694
961.31
755.755
68.474
596.413
392.049
289.261
980.266
845.919
179.85
217.265
4938.5
1665.15
128.322
178.032
457.232
710.112
1303.08
51.8408
212.209
1635.11
554.215
644.016
885.443
991.805
362.99
5427.08
203.904
52.526
5692.08
1979.86
528.973
1853.78
621.206
60.5432
91.8035
397.814
92.6268
466.914
1237.03
3586.71
406.442
2334.8
1616.12
133.594
87.1869
856.148
496.734
72.0051
3057.47
513.479
627.761
979.616
303.882
624.253
1820.94
2000.04
2627.64
342.375
328.147
469.704
450.263
4112.25
319.14
621.976
1664.32
608.405
395.606
568.478
2044.05
1764.44
520.362
273.777
8876.11
1868.53
8782.71
5556.52
641.593
5593.96
1478.21
1678.69
6437.82
912.098
526.931
564.974
893.344
324.092
5882.83
585.939
3617.41
467.651
139.036
212.585
754.961
633.239
6179.19
2808.43
543.997
480.74
4315.78
5020.34
935.676
1785.16
452.055
447.307
64.2113
24.2105
3545.66
372.822
41.1312
4632.61
2186.52
5092.06
151.53
214.505
129.354
195.179
387.717
395.912
215.573
161.26
724.052
1050.05
1227.25
127.99
344.994
318.428
2520.18
274.731
1867.79
336.318
372.72
238.75
752.559
610.287
573.26
718.348
676.043
6767.5
400.495
5010.34
2906.91
129.955
11070.8
79.129
543.933
6811.4
7596.35
1209.9
362.597
361.279
1761.52
299.763
1212.35
233.936
2121.47
3198.25
4105.77
196.685
3795.85
47.461
1631.57
432.08
178.045
369.038
565.683
1652.24
2997.84
790.704
318.517
340.311
373.488
137.187
333.689
9025.68
1081.42
76.5655
297.726
5102.32
78.7126
54.9277
2124.95
2657.61
2429.35
4660.14
3604.48
44.9385
919.103
228.188
1721.38
1797.02
686.05
2408.83
1791.94
2099.08
1866.29
1616.69
1628.92
1864.72
312.746
513.744
103.147
72.8256
2395.54
4979.58
2164.55
9535.81
9644.66
45.4942
1361.47
2356.28
485.285
1566.8
1692.48
1314.91
1502.66
572.961
4565.38
349.793
946.838
625.275
105.649
167.974
121.755
483.925
8517.12
231.28
201.931
415.073
362.278
6077.9
279.561
53.7735
616.77
47.6474
794.604
895.443
1859.17
7968.25
926.538
405.354
372.015
1953.99
449.909
6187.58
6715.1
193.447
135.899
5847.29
531.298
463.209
2431.13
1750.98
1427.87
367.374
1287.18
376.095
158.358
790.872
286.117
1224.47
470.106
4152.68
140.529
2240.57
1786.15
2517.51
2720.42
551.389
1094.06
169.174
412.784
717.7
1214.74
954.923
71.7842
216.928
36.993
620.438
1076.06
1601.98
25.0117
544.609
1403.35
305.075
764.817
3835.64
1030.15
762.383
403.601
434.246
187.424
191.826
896.977
108.816
285.336
349.942
3393.21
3606.4
166.658
46.6779
5626
135.684
1121.25
1034.32
617.65
769.595
2894.64
411.058
93.6753
1411.37
1772.67
49.0355
1800.4
5393.32
1280.5
1400.07
2311.31
473.543
452.001
1570.61
1817.34
38.6084
554.514
349.088
590.457
48.7698
78.0791
3077.02
264.322
692.436
861.277
950.455
498.73
1328.34
1247.11
1501.25
463.221
238.015
164.824
692.263
38.9387
128.312
447.593
3074.71
305.032
501.793
337.078
488.809
402.036
5375.44
68.2522
472.14
1295.92
2410.9
1460.13
1676.23
811.974
363.722
37.867
1739.78
1328.89
655.39
725.547
4987.43
537.634
528.521
404.21
4967.01
1677.47
5086.36
700.295
1435.04
2057.36
6974.78
774.894
1341.92
1790.22
2038.21
424.38
1143.01
997.309
937.055
229.311
162.839
195.633
260.462
746.582
588.899
844.781
527.953
265.373
240.241
3605.98
1749.78
3906.16
4256.44
4957.68
32.4645
701.124
390.311
1353.03
1566.13
966.781
1069.02
3502.91
272.164
3004.92
1986.88
61.4804
7416
3899.34
2914.82
1433.78
911.607
1023.62
618.828
747.283
236.281
66.4977
1523.95
3973.9
492.289
637.244
114.428
834.89
808.626
2034.38
214.225
4900.73
5036.98
2813.98
1136.41
302.998
2970.93
1638.71
1205.05
4405.24
1350.9
1296.16
1227.46
173.665
148.814
7181.46
1368.85
742.657
37.928
81.4989
834.819
940.619
33.7034
41.1131
673.919
3326.83
265.989
108.671
49.1151
49.0438
142.385
45.0062
3930.45
1423.64
45.5999
674.357
4265.46
530.662
200.759
142.52
103.158
1559.21
257.348
955.106
827.891
2643.5
462.201
157.751
5156.34
5488.65
3625.96
654.299
3626.05
5383.41
70.7025
334.742
182.652
499.652
364.059
4043.41
352.55
1967.88
62.8987
2852.42
2293.32
2241.78
1926.9
569.064
50.6923
429.492
1240.1
113.575
699.216
4706.09
570.553
599.799
1234.2
276.243
1049.33
311.328
101.607
3266.53
480.541
642.128
760.333
1513.84
1386.6
6804.6
7614.5
120.294
3407.68
1583.45
314.046
3032.37
234.464
854.799
2341.9
2377
1809.9
332.771
1909.57
783.69
403.544
914.625
45.3799
1572.32
1399.69
98.3711
57.1489
82.1521
527.118
993.592
799.964
699.971
378.904
256.822
2787.29
60.1098
63.0243
400.689
392.007
789.689
1658.11
2249.35
2235.78
2167.67
374.974
7814.86
2133.79
1340.18
1345
40.0076
765.172
37.8664
45.5458
144.097
6295.71
331.905
6277.19
1647.53
2293.05
143.752
5279.52
491.141
364.308
343.008
252.076
859.068
4871.13
1061.02
1918.35
133.589
2671.11
515.719
1423.67
278.014
1184.56
975.37
604.921
6653.14
5045.71
5305.84
50.3474
38.6013
472.794
539.643
1177.69
359.591
1293.14
120.711
397.365
36.1154
4514.22
3372.88
2818.59
482.673
3406.01
513.263
4025.02
56.2483
403.61
338.469
9790.72
691.499
1070.73
816.351
4340.4
6131.72
4960.26
950.858
4267.09
866.106
815.428
806.189
649.76
1501.26
508.129
467.139
5297.07
3834.06
173.162
40.4641
488.131
516.047
2996.19
435.191
440.808
289.308
1581.16
1957.93
793.211
332.473
205.277
201.051
2120.23
2564.96
750.504
1507.5
5000.25
146.389
52.9401
1242.28
1438.36
6236.56
2471.03
2242.59
367.109
1515.59
45.8308
6976.61
313.851
39.8911
50.2763
53.0165
92.3285
324.605
535.647
2636.56
2478.34
661.85
805.932
363.879
5299.27
4975.36
272.335
51.2896
150.573
1397.4
348.436
275.008
51.0279
2828.79
258.877
214.219
1127.63
1004.65
2509.24
1884.5
4851.62
46.9204
806.24
12159.1
9159.38
860.126
209.345
6645.08
2785.99
35.7172
976.171
3827.29
2832.53
7543.05
555.56
996.514
5290.28
793.839
458.37
6085.11
2253.68
360.987
1410.73
2302.98
558.32
72.0256
535.038
610.318
709.052
1666.87
1390.7
9791.41
2411.24
742.267
701.029
444.943
555.769
7128.92
8514.38
323.922
189.445
345.547
647.888
56.3964
1119.29
4012.82
1077.94
3839.51
4709.4
730.727
159.74
5574.52
273.267
1009.38
953.726
43.831
711.128
9884.52
567.02
1854.85
6138.91
1605.48
57.7248
8017.12
5349.5
5023.09
276.999
596.306
3123.18
643.79
4236.35
207.465
99.4688
103.142
2259.53
167.352
214.107
3574.81
69.4177
454.723
2232.1
858.816
8579.89
3129.32
168.868
801.339
238.289
1053.74
2923.55
31.5232
7812.65
12044.4
1090.06
52.4096
2816.87
4539.95
155.164
89.9439
193.62
401.436
5427.81
928.787
819.87
497.08
604.135
2696.48
675.211
1229.83
10645.9
3089.31
4056.35
519.184
2941.31
812.407
127.513
1074.99
479.844
41.8224
2945.95
1637.65
3637.53
2230.92
2511.93
1903.07
6643.87
454.76
1545.01
465.785
467.992
268.474
1310.62
1387.97
123.581
1799.55
1085.7
629.795
111.965
361.718
761.568
4753.08
4278.38
5188.76
2801.72
1266.15
4074.34
1584.17
9124.52
171.628
563.151
8117.09
470.639
1095.34
3529.72
49.8954
49.2837
1222.3
54.0925
247.858
342.605
887.571
5197.72
676.174
709.317
1600.2
7815.08
1603.21
420.62
646.165
596.651
1081.99
804.998
6984.87
199.891
2079.47
3803.9
5448.15
4780.37
707.665
2202.56
2229.44
48.5189
343.572
2853.58
11090
181.719
169.769
5583.28
247.494
630.87
881.742
511.21
61.6028
215.599
6474.39
97.153
6515.48
1835.02
978.552
580.643
1365.68
47.0064
1669.39
49.3195
10973.7
483.343
350.512
4658.69
2434.32
2186.07
282.457
1539.93
256.159
9802.18
5992.91
500.607
11114.2
866.576
324.336
9904.98
529.018
2576.15
2056.66
200.338
3987.87
286.776
126.802
982.172
7269.3
5331.36
3934.86
220.854
8465.54
374.842
740.539
84.6876
541.221
6432.49
10709.2
90.6812
585.812
55.0549
215.714
1959.79
309.633
291.26
3103.55
1378.22
1070.57
910.143
815.816
452.159
54.482
2061.51
7576.24
566.754
341.499
282.537
1257.68
45.9591
57.6251
458.651
346.861
1005.7
480.993
6701.76
846.8
630.73
50.4858
2696.05
4731.9
428.498
608.229
185.878
1568.67
1030.03
71.8588
401.351
553.216
448.036
144
282.38
242.015
50.3789
47.3517
5644.06
1318.11
6928.04
1639.14
5506.95
904.644
6575.43
122.648
57.2401
236.623
2005.24
1546.23
601.168
528.582
3929.33
285.305
47.3986
1047.02
4613.1
1150.91
11603.1
10241.3
254.852
770.328
597.662
8903.62
8297.59
40.5239
673.181
1358.36
2157.98
1769.92
582.989
5073.81
797.905
402.175
726.961
3623.65
1404.85
76.134
8119.9
1216.83
55.4186
381.436
6711.63
1617.52
2437.81
1564.32
1263.02
5898.61
449.68
546.81
3114.32
1000.41
1368.96
1224.87
1948.37
9724.16
589.177
1608.93
1529.84
2522.08
417.029
11708.6
7936.38
218.823
1937.03
6845.36
2428.28
7517.37
1840.92
125.803
220.738
541.144
39.8098
1721.22
435.737
1892.7
4621.61
5278.04
5256.13
74.0494
75.7746
57.9249
1227.49
47.6286
177.571
250.789
320.235
288.793
1879.57
9805.94
164.459
11465.4
1964.55
1742.64
6595.76
7123.63
11126
3749.12
206.738
11270.1
1255.2
10195.5
6870.14
6185.69
1728.06
9302.81
65.4698
85.0946
3512.48
229.775
8180.99
4039.94
3790
4350.03
5950.15
139.349
292.964
868.95
692.243
272.35
187.553
148.601
44.4302
61.0507
2861.38
473.651
421.284
94.994
1367.66
3860.7
915.048
3298.02
998.188
1209.69
145.504
891.883
573.962
693.791
4889.33
349.267
752.368
604.73
1140.8
292.453
8274.52
262.25
8882.02
1690.68
375.147
1121.99
1182.25
1244.2
1859.68
9092.07
50.8613
47.6378
444.135
3364.7
41.8779
2147.85
36.7754
4595.37
5127.07
5825.71
232.086
3753.27
9932.99
393.462
419.217
2869.37
2292.96
1643.65
202.335
2231.72
2041.35
2454.57
8757.11
9819.68
47.875
141.905
510.033
8721.9
368.203
752.246
789.204
807.597
6480.97
7972.63
5881.09
3295.41
496.094
370.254
190.863
225.091
4041.24
3868.44
3041.56
3277.75
189.098
366.971
754.525
705.313
5890.43
1817.01
1818.79
1660.22
784.615
311.092
513.323
5334.18
1250.16
1700.86
592.717
1308.03
10249.5
6995.67
2831.7
654.636
460.069
8701.31
725.18
694.247
430.481
5740.36
135.99
1940.86
367.23
413.746
469.959
191.306
357.492
93.1108
47.5889
4258.3
908.31
1903.4
1088.45
2500.81
438.287
94.1071
197.645
692.726
403.041
365.329
1004.68
476.986
8614.91
3730.37
7997.26
8516.06
205.143
320.966
317.493
227.96
1470.67
628.394
1629.43
8487.94
4716.42
172.464
564.251
10939.7
3168.05
1515.9
6634.51
53.0784
129.024
149.354
5853.37
7857.84
231.231
165.327
187.322
658.502
8557.7
7508.06
3491.51
471.64
493.49
5495.66
6287.94
282.102
299.677
1969.36
2026.82
4408.9
560.116
2437.16
703.734
182.668
137.674
42.6801
7483.09
330.582
103.994
5383.52
319.409
79.3259
6242.09
938.683
10136.7
887.8
3378.16
1074.7
1070.38
12019.6
879.93
46.8586
2082.34
466.28
1970.41
423.873
367.115
402.229
2190.16
241.648
603.292
2078.98
225.248
623.564
6118.62
209.11
509.542
2390.83
636.264
646.241
5896.29
6381.9
51.6276
5348.93
5951.79
1360.13
5825.25
57.2779
973.409
342.354
45.0618
47.7977
10859.5
866.812
827.822
233.623
274.135
603.616
418.951
176.435
185.471
742.63
102.119
129.97
2265.75
719.069
306.49
217.441
89.3816
114.75
3395.64
5768.92
2802.75
231.626
656.459
53.8342
464.427
572.481
331.754
757.159
1198.98
2391.98
2270.33
317.118
1082.29
4789.94
553.912
346.568
473.787
5483.6
606.433
737.22
3232.24
611.599
4410.11
2589.95
4570.08
172.966
206.622
176.868
365.304
354.88
429.248
268.962
199.219
1115.22
1150.38
406.115
2464.96
5992.1
160.431
1510.46
1389.06
7016.54
1471.26
49.5369
1710.72
472.874
899.24
2323.74
886.376
9751.49
4102.15
677.707
3630.99
440.11
40.9645
4491.92
140.284
181.541
205.578
3206.93
112.031
592.672
1039.29
696.507
327.54
372.751
888.103
3522.47
6347.83
1764.09
1998.32
5187.32
6677.78
334.699
10312.9
11069.8
8851.01
9723.83
43.6883
40.3957
52.3186
1386.5
2202.7
2437.83
943.336
802.953
358.765
334.312
4030.32
378.613
1866.4
99.1392
1320.42
475.016
4184.27
564.888
2861.64
44.9209
4385.81
4234.42
5052.34
4267.49
4434.15
2002.9
6422.06
2613.61
157.962
1838.29
121.788
4283.64
87.5637
445.446
4766.81
4304.74
2323.84
2256.55
341.31
503
1469.67
319.797
346.495
7897.97
6282.74
2095.59
832.402
49.8395
645.4
522.008
9331.03
647.637
3258.11
1892.09
6511.43
939.276
290.173
1108.28
395.9
938.491
510.901
572.235
2191.43
155.908
1723.57
2268.19
238.417
259.145
253.662
3226.75
885.535
441.232
538.041
548.653
978.763
1638.81
1391.18
213.321
1314.63
8987.41
917.242
229.046
375.914
3266.9
3891.1
479.054
647.298
1113.66
1188.5
5119.35
7208.87
63.805
2127.71
33.508
7093.41
5478.8
2443.35
1522.39
4843.18
988.849
1436.03
5299.4
2965.6
3398.77
1280.01
63.9944
3783.18
1472.28
2154.13
1521.76
4779.24
434.571
3887.17
1535.09
1005.02
67.1007
51.0805
71.5663
1339.14
1485.87
457.645
307.301
3546.62
1289.32
170.582
620.731
653.747
2165.71
5375.27
626.418
419.864
1459.66
1798.97
47.6525
181.427
166.214
2642.6
184.947
389.783
260.873
730.694
3383.29
805.015
1930.69
797.718
2489.59
2001.05
3651.13
357.299
362.549
290.242
1824.5
761.793
600.781
614.334
1179.1
419.664
198.765
7091.88
3232.84
7556.7
49.5061
50.3302
46.7438
205.125
520.475
243.639
221.418
65.6441
75.197
930.288
697.604
718.235
807.437
60.7829
2312.09
590.423
6041.57
1727.07
143.463
368.294
5647.58
320.093
420.991
696.905
837.932
863.215
176.115
1499.37
207.098
58.5561
9317.31
112.987
92.8746
549.028
86.5406
2764.54
4112.14
3678.19
479.997
2094.04
1370.78
456.846
1750.18
1906.03
621.629
202.18
145.296
45.1486
3766.78
4073.65
7531.16
7205.91
121.395
628.635
213.815
1307.54
1518.4
379.133
2365.19
501.505
746.991
476.281
3667.26
5096.16
61.5579
6281.4
5663.36
846.652
4089.39
1137.35
1720.75
8119.16
474.046
478.152
2117.69
691.133
863.368
472.967
347.982
3430.45
1914.83
9739.29
47.225
2540.98
1060.89
638.32
480.606
5104.21
6348.87
4642.26
4186.29
886.742
1269.93
511.876
2845.19
2602.88
256.296
2344.39
106.151
7077.41
321.792
1312.67
1109.99
403.801
366.141
68.1178
1107.54
42.1586
329.262
842.599
3349.41
10493.8
541.731
38.9646
2124.86
1137.94
269.463
252.333
1104.02
1488.93
2717.58
3693.79
319.885
4367.63
1266.25
252.857
391.656
125.485
243.45
283.072
1317.77
1540.21
878.306
790.106
1752.32
638.442
45.0471
1356.67
1538.5
4355.01
124.069
958.736
155.341
117.534
7686.12
3342.51
44.2519
3321.89
1308.98
2631.98
1906.11
1161.12
1531.98
4828.06
521.677
44.8079
4045.21
306.665
365.895
906.065
8035.61
292.729
1556.77
231.128
2241.53
34.9268
946.064
1842.08
1457.86
9427.71
472.106
1587.56
1900.18
1113.76
1418.78
56.9023
390.69
1902.01
2164.56
147.715
680.707
314.186
1929.97
2219.84
1198.23
5715.83
344.627
212.458
446.176
679.363
326.845
2277.23
52.6139
568.718
518.299
994.688
2082
5631.86
2417.56
3720.7
3176.13
3253.93
214.113
38.3986
375.786
460.258
847.974
1140.89
5504.68
1744.33
1108.86
4326.66
611.889
247.734
904.875
7122.67
5158.38
269.668
3749.54
2862.03
1856.99
248.52
6478.21
79.5414
1324.71
80.6147
84.4614
454.139
217.302
566.914
3543.05
346.927
531.38
476.012
1676.78
399.382
50.8588
3639.35
674.852
114.581
900.215
125.884
3759.47
4596.1
4509.03
9940.93
872.155
408.999
242.318
44.9348
2093.97
47.6535
5571.56
5631.46
365.251
1663.3
40.7592
58.1603
965.629
993.828
97.0501
102.337
1666.27
1128.83
312.392
278.33
320.929
368.689
4343.83
1058.93
1034.32
1060.66
225.164
3846.44
3880.87
3710.9
2633.35
377.318
1429.35
2111.35
919.32
966.409
879.168
662.699
50.7959
7206.25
1631.36
936.418
694.602
1392.72
2495.51
36.8002
673.121
726.698
704.282
1063.54
816.011
517.396
1272.89
123.133
169.574
808.964
6333.37
2816.96
3145.03
259.983
676.606
182.333
729.704
781.012
2950.67
713.655
450.769
5175.65
58.1009
290.676
597.955
671.921
709.461
633.269
940.734
1145.47
34.3112
687.226
1514.67
1303.48
6019.19
321.002
230.178
76.0813
2321.82
233.251
342.527
2694.2
180.941
5534.53
3002.32
2563.03
940.454
2174.79
2551.35
397.114
1864.31
56.087
200.54
569.046
325.733
2343.55
2458.33
1079.66
801.675
765.523
1382.22
1350.63
5670.92
1659.01
4533.62
3981.85
5756.3
489.999
3440.13
159.251
2758
2539.33
69.4595
51.8519
44.2431
2571.15
185.406
251.575
4796.14
1239.88
2930.52
543.901
482.773
481.883
1418.1
1171.88
884.821
106.416
70.4881
332.178
306.722
3324.65
4929.98
847.45
1192.53
466.271
494.679
1486.36
632.793
140.327
2556.71
318.592
1621.14
65.9431
678.704
1208.8
71.4609
43.3724
634.78
5937.77
513.81
414.228
3021.81
4355.24
5857.52
1250.97
1753.37
469.21
811.786
227.618
236.583
1495.39
1430.3
7543.99
7185.28
1520.17
973.249
1238.46
1134.12
212.274
1548.76
804.18
2137.62
2922.43
3264.52
270.187
1779.38
604.292
897.291
634.6
1718.01
662.628
6705.46
6187.38
775.271
442.219
413.48
55.9211
880.643
1224.35
343.273
1076.05
1239.31
866.181
1803.6
3907.71
485.045
1344.83
740.526
1177.19
601.425
3534.81
790.446
981.155
7209.18
7103.35
3708.24
2907.79
119.55
1257.62
2287.13
6889.37
5653.68
273.378
935.227
1749.92
1416.66
663.223
2115.87
285.143
468.487
4982.38
4455.95
341.599
1294.99
1294.15
1254.14
278.243
884.711
553.896
910.892
64.8972
70.3916
2334.85
46.3966
454.246
201.703
3577.39
75.0729
1018.47
208.008
2308.33
427.284
1250.41
746.714
412.844
1693.76
2541
746.912
2917.08
211.129
574.452
358.459
288.838
300.993
4030.95
467.022
541
621.827
6059.69
764.531
385.395
270.13
3821.21
663.959
8043.03
3900.38
3209.1
2459.12
2053.25
825.839
710.069
427.366
714.175
946.063
2123.22
317.736
2242.13
1204.74
5323.67
3318.31
1906.23
403.413
197.103
1758.1
58.1076
472.222
827.984
225.687
2586.58
5415.33
3199.25
4248.99
3468.82
346.325
7863.24
6916.1
127.123
4508.12
281.908
5245.3
273.171
365.54
850.382
997.887
2317.69
241.32
112.862
1669.04
357.652
498.17
731.577
350.038
342.92
891.237
1045.12
1093.17
277.484
398.865
50.9035
292.259
170.128
1252.54
293.263
1404.68
4783.1
5128.77
4626.54
5150.73
443.366
299.345
1787.71
390.734
821.586
255.597
359.688
530.028
78.9033
458.472
1446.19
527.777
2493.39
449.521
1779.31
586.325
6233.62
306.517
2554.51
951.327
2689.56
335.983
109.582
107.107
2414.77
761.612
643.879
243.183
422.679
857.39
1593.06
588.139
393.912
164.863
243.81
419.255
449.679
49.0764
375.972
55.5596
343.675
593.087
572.53
453.715
2258.75
544.454
7863.72
2263.81
1133.29
1592.66
1843.06
2908.5
1167.99
1145.39
102.816
846.994
588.981
3064.11
4045.6
315.839
823.512
28.4014
894.71
3817.7
853.629
669.146
1438.17
318.835
540.476
392.4
2794.42
2951.07
288.049
218.291
627.601
1432.47
47.6909
119.977
208.27
649.707
610.1
652.784
980.95
993.888
37.4485
2124.69
1326.75
488.025
878.089
5648.36
2517.32
272.692
350.434
1130.95
499.102
1564.47
2057.51
4266.23
5005.66
1579.2
1251.19
1806.17
3411.49
642.887
423.866
5965.99
1244.04
217.955
274.994
3818.23
73.5852
1826.89
7655.02
404.742
1642.15
1832.44
8268.87
531.697
690.174
6594.78
469.452
798.564
201.802
52.869
353.036
865.921
1934.99
2338.98
2150.02
2297.96
1622.54
502.485
3651.99
4285.15
4222.91
266.933
3955.42
1331.54
4086.74
515.034
1927.86
308.447
373.308
484.495
180.512
382.575
232.542
981.502
1298.64
436.628
216.525
6175.64
4638.32
3542.91
462.002
254.761
744.958
952.324
878.217
66.6075
247.237
4631.65
64.895
84.0607
1689.03
1358.45
2389.19
768.209
2275.55
186.02
1578.99
1459.55
462.4
4765.92
180.43
54.8005
1873.72
4329.08
4767.52
151.661
5151.98
227.752
3213.64
4998.19
269.776
325.681
180.935
532.778
442.754
641.863
2203.67
111.899
1306.37
41.1393
247.746
848.123
54.7048
1324.62
401.092
1875.22
418.81
1002.31
53.754
1130.95
701.641
1123.83
190.011
64.7638
1467.59
3612.22
575.775
1207.59
558.372
200.599
1766.05
243.75
5191.09
78.7871
720.033
867.1
639.045
2130.66
121.323
157.606
131.223
70.8906
4131.67
274.034
609.805
3214.12
1029.49
97.6479
100.242
6667.23
469.99
644.238
5165.59
4733.47
1257.98
1395.88
492.775
1795.31
1354.67
229.936
214.046
96.2183
5856.05
4319.08
222.75
7219.07
3110.56
347.589
6570.45
5135.11
79.576
834.963
167.394
131.557
5829.72
5032.04
2301.66
2541.47
95.7839
597.429
4378.21
4131.5
93.9327
179.598
72.4073
282.349
43.3186
1242.23
215.343
2594.75
5181.97
317.739
4910.65
640.911
2503.08
1694.9
140.704
7691.91
42.1548
2716.14
3882.51
3722.66
543.515
485.813
51.863
6195.56
5028.91
3212.72
3347.54
1055.41
650.508
395.928
298.741
301.738
5202.77
6135.79
996.298
181.377
961.562
195.08
5203.1
328.799
661.929
975.797
1466.08
6459.88
344.619
5387.7
5506.34
5000.54
5393.6
122.105
2540.97
2733.46
379.111
69.3399
4632.37
1338.17
389.88
197.04
204.606
1719.98
432.931
434.067
432.649
3898.79
2674.33
6621.73
4048.32
185.428
295.608
489.147
516.682
221.941
289.759
142.824
725.399
947.375
1197.46
894.381
2690.28
1241.19
2358.08
1090.12
1218.03
453.306
395.535
423.746
3676.89
2975.96
323.68
335.145
6231.91
166.222
228.987
2545.59
324.947
2067.5
534.942
1411.99
1223.81
1620.13
95.298
530.252
151.311
1272.16
1397.86
407.827
3485.61
790.888
132.294
1046.52
289.122
786.935
54.75
282.19
33.8419
4263.56
3399.91
467.008
380.995
87.3462
80.5657
272.305
6086.94
366.54
604.988
5392.26
37.2314
38.1822
599.867
433.312
229.021
1946.5
1377
1872.99
6075.48
240.852
212.022
302.339
5492.91
2945.75
1053.8
1604.98
248.656
1575.63
557.756
50.0768
1136.93
1071.32
1358.85
1183.02
3849.83
780.908
477.825
103.699
628.538
206.049
663.831
5136.71
244.458
52.3141
2595.64
1130.18
1034.63
7405.45
633.836
214.168
1368.37
1789.19
291.026
670.878
3756
679.534
194.496
4143.28
46.9081
4848.21
457.59
345.165
788.963
405.678
402.797
3774.08
693.619
1446.69
272.4
1133.72
4738.73
120.45
374.188
3073.83
3309.99
3923.9
5074.38
1854.44
648.099
3468.67
4581.94
294.564
59.5849
158.215
3434.61
194.557
119.438
3442.34
2210.63
1422.54
41.5126
48.082
118.371
102.637
3052.57
1415.86
297.222
1358.92
1488.69
384.622
431.983
4624.9
178.857
829.598
267.45
354.291
1352.08
1161.41
479.32
4228.65
581.087
399.057
230.237
894.271
972.194
120.098
565.034
2097.15
519.581
4156.3
3575.92
2266.76
180.35
2974.3
98.2283
866.331
87.967
4745.94
4217.41
2920.71
1230.53
114.328
6207.4
5382.49
789.816
321.241
317.517
565.058
704.73
39.2395
352.065
565.451
1001.97
1528.8
554.984
567.085
394.902
2859.28
2362.03
114.131
400.498
644.544
168.875
4338.82
488.586
1686
999.384
197.746
2718.76
46.1278
47.8562
5030.45
4450.36
844.488
947.784
50.8007
1032.42
4453.64
386.533
299.667
1304.05
5386.18
4865.77
2329.56
2198.95
1690.06
2960.21
569.11
207.75
390.041
1340.92
523.85
959.15
1038
1744.61
4939.6
5235.01
290.257
195.038
5397.21
1673.52
1604.36
3206.1
65.8765
376.565
766.155
353.478
384.562
1046.93
167.224
4945.6
3907.09
6077.48
5509.88
42.2483
490.726
802.129
3316.68
42.0147
1745.08
1705.03
42.5971
226.643
3932.58
437.87
343.129
45.5129
274.575
1100.78
986.656
1785.96
44.8891
166.234
1167.99
982.869
455.434
102.611
3859.78
1716.4
1600.13
228.882
209.681
381.235
2734.09
2669.47
49.3682
1142.61
591.693
1425.38
1588.54
2371.36
431.31
4346.97
489.762
198.387
2533.39
4478.72
3958.57
2686.64
337.472
265.415
4506.49
1321.74
1519.72
1460.21
1548.63
4209.88
317.402
2185.82
1921.74
544.13
825.572
519.886
297.769
583.005
1653.45
40.9615
5336.88
568.563
4123.25
218.737
429.086
213.534
40.2687
156.712
2298.45
641.21
596.514
95.9367
103.5
322.053
1995.71
55.0434
499.957
375.958