/*--------------------------------*- C++ -*----------------------------------*\
| =========                 |                                                 |
| \\      /  F ield         | OpenFOAM: The Open Source CFD Toolbox           |
|  \\    /   O peration     | Version:  2212                                  |
|   \\  /    A nd           | Website:  www.openfoam.com                      |
|    \\/     M anipulation  |                                                 |
\*---------------------------------------------------------------------------*/
FoamFile
{
    version     2.0;
    format      ascii;
    arch        "LSB;label=32;scalar=64";
    class       volScalarField;
    location    "10";
    object      k;
}
// * * * * * * * * * * * * * * * * * * * * * * * * * * * * * * * * * * * * * //

dimensions      [0 2 -2 0 0 0 0];

internalField   nonuniform List<scalar> 
308140
(
2.08723
3.87805
9.36086
5.00913
2.84636
5.54738
2.77163
6.3547
2.19218
4.69138
4.88043
3.9342
5.27361
3.36876
2.59596
7.44323
7.98377
2.29686
8.44134
3.47603
4.88329
5.82761
7.17375
2.29862
4.72634
2.90005
1.72622
1.47819
4.29751
2.997
10.35
2.70651
6.86914
4.66879
3.14105
1.66461
3.48026
2.81365
9.35025
5.04511
2.80312
0.965869
4.53242
4.97911
2.58903
5.53835
2.83758
3.45861
5.37033
4.49595
3.42419
1.88308
2.40924
4.76003
2.42557
4.27676
8.9965
3.51312
4.49331
5.28961
9.599
1.13388
3.04128
6.72069
4.89519
2.73356
0.731402
0.712989
1.69482
4.21673
0.702996
3.86892
1.89596
0.690674
3.48597
2.85158
2.29826
2.70963
10.8341
6.49565
0.647591
5.67945
1.38187
6.19145
1.19868
2.72404
2.75432
1.34684
1.86318
2.17462
4.15844
0.77908
2.59788
2.32609
3.19782
2.60623
1.35085
1.36385
3.96037
3.85972
3.58918
5.82814
1.67272
2.34966
7.37447
2.91648
3.01639
2.43759
6.13633
3.68048
4.26288
3.12582
3.07298
2.18985
2.31928
4.72396
1.01793
4.94894
3.95566
1.30958
6.36011
1.64299
8.16369
5.59323
2.60409
3.7167
2.29065
1.86406
2.05952
6.26864
8.44004
0.883524
2.73979
4.73956
1.06032
3.13632
6.30804
4.41532
4.331
2.35935
4.28524
2.70937
3.40686
3.51187
3.77596
6.17922
6.27146
8.90302
8.67289
2.58014
2.63855
5.34724
0.655079
1.11685
2.7331
7.56905
2.15893
4.59249
1.59905
1.13575
2.75731
2.21206
2.34252
9.24783
2.51586
4.72586
3.05409
3.22884
1.38781
2.20326
2.06636
4.17535
5.41778
2.46448
2.58688
2.46445
4.00097
4.53446
5.23301
2.95009
4.72174
4.49314
4.15491
2.95227
2.57265
1.1043
2.5253
1.91976
9.06103
2.02403
3.91789
4.67106
1.01438
3.55615
0.710317
6.82825
7.33586
6.56648
8.59901
10.3408
4.62107
3.43899
6.1784
3.19427
2.34889
2.67441
2.9755
5.6854
4.65146
6.62704
5.01723
4.19673
3.91491
2.18194
3.62941
3.87403
2.82599
1.24475
1.36015
3.51919
2.789
3.08103
7.52009
7.5674
4.53784
2.91065
7.34078
1.03079
3.18825
3.17882
6.12193
1.62074
1.31415
3.66074
9.06406
7.78893
3.84569
1.92696
4.422
2.54915
2.54886
4.36688
3.06878
6.72494
9.16757
3.08464
1.8715
0.679605
10.6731
4.49189
2.37502
4.42156
2.41047
6.95892
2.81501
10.1419
9.20569
4.68311
1.99985
8.01123
5.95466
3.20695
1.88304
1.98323
4.94691
2.60446
8.58197
2.83033
2.15283
2.50772
1.50782
2.73885
3.7198
5.8459
4.0043
1.97151
8.63394
5.04337
2.28211
3.53181
4.16246
3.41044
3.53966
0.696419
2.38752
2.59008
5.75718
6.91543
2.90505
3.19291
1.89077
1.90882
2.58955
1.71665
1.86214
1.67247
4.13536
8.46801
1.45323
8.40014
5.53308
2.64583
3.21748
0.655658
0.671648
8.99124
6.65455
4.73556
2.49729
2.03538
4.73496
0.736035
2.0858
2.57753
4.20633
4.72874
1.91423
2.0936
7.04287
5.45633
4.21944
7.30437
3.62199
3.17841
3.22398
4.23529
6.69688
6.29795
2.13834
1.93921
2.02476
3.44854
0.666776
6.85622
1.48169
0.834416
0.623303
2.31082
3.53982
0.801511
11.2795
3.2611
4.09405
2.62305
0.726524
2.27766
2.7184
2.93048
4.04584
4.23906
3.91599
1.69817
2.69113
0.66269
3.91414
3.87017
2.3827
1.66009
5.33903
3.04519
2.57894
2.53436
2.92988
3.33093
10.2736
7.40402
7.13753
2.96799
1.73338
0.925443
6.50644
1.19787
1.00912
1.86828
8.82572
3.13153
0.696107
0.74143
3.01059
3.52809
1.22038
4.4451
0.820202
2.07031
1.21937
1.61075
2.57872
6.99631
1.51523
3.75179
3.87549
6.12199
4.49493
2.23476
3.03451
0.654562
0.665744
3.36634
1.54545
4.76357
2.3541
5.6491
5.60502
6.03505
8.43783
2.87038
0.787914
4.20552
1.46134
6.55555
3.84157
1.90983
2.04555
9.67571
0.853053
1.92481
4.99495
2.55457
2.44289
1.92022
6.96453
3.43467
8.66409
2.15471
1.97826
5.3302
5.16542
1.96136
2.80434
6.52535
1.50695
1.39457
2.78108
3.07765
2.88804
5.13598
1.98135
1.56468
2.45196
3.08115
5.01842
6.64729
2.85744
2.71098
6.62546
4.32174
8.33439
8.35636
3.15004
3.15136
10.7891
7.96252
9.40551
4.59507
4.56475
5.0815
3.24851
0.670821
11.4648
2.088
5.00699
7.35022
1.33029
4.30708
4.17989
1.42145
7.10152
3.07508
5.98872
3.69084
4.32999
2.73308
1.7957
1.527
2.17886
1.70766
3.09575
2.66046
2.99519
2.99499
1.85623
4.30779
3.39193
2.55959
6.69468
0.73978
4.71657
4.62667
1.78581
0.682397
2.77307
2.88601
3.01849
3.80945
7.00595
3.37693
1.48819
5.61332
0.626295
2.94445
3.78284
10.6016
1.07816
1.81579
1.97661
3.41375
2.39146
2.84311
8.32322
2.31758
11.5615
9.48256
8.85353
8.70337
1.68283
1.53445
4.32232
8.32265
2.40459
2.48314
2.22687
2.41259
2.29234
8.71325
1.54573
2.61097
1.74817
1.434
1.66755
3.73164
2.69636
3.26911
1.87778
4.05636
3.83125
5.87835
4.37669
1.79536
3.86702
3.05605
2.02363
1.73433
2.41259
3.75348
2.03755
0.708936
2.26796
2.15358
2.4262
2.30998
3.74463
3.0412
3.42003
0.626035
10.0767
1.77028
2.87892
1.6592
2.33284
1.9968
4.83804
0.673741
4.87099
1.50218
6.21403
0.973104
0.692848
6.10925
5.32978
4.08728
3.15373
1.80078
3.41279
4.13754
1.7613
4.8503
1.7472
2.18191
1.76499
2.16247
0.652345
3.76936
3.56467
10.7824
3.68287
2.18432
2.48404
3.65839
9.58052
6.89476
2.02798
2.896
3.09592
3.85681
6.16348
1.69434
1.70041
4.20177
1.43861
2.31092
6.84512
8.18146
2.24425
3.15541
1.3578
0.723593
10.7914
11.8255
3.73781
1.94913
4.5717
2.72071
3.69411
2.38269
1.29216
8.75826
3.11372
2.59764
2.42601
2.69141
0.899381
0.783315
4.1517
3.52094
4.19672
3.8976
10.6568
0.747736
7.02787
1.66232
2.43286
1.87882
2.22031
2.63949
7.98795
1.8426
1.59416
0.887328
0.662819
6.17184
1.77032
4.60378
3.77761
2.18097
1.98439
4.68191
6.94008
4.51222
3.2269
2.77391
3.24601
2.78188
3.44047
3.40269
3.3695
11.3224
4.7823
5.9092
5.10707
3.65782
2.30334
1.85854
0.684011
4.72468
4.0675
8.36736
5.12233
4.42579
3.55128
1.09117
5.73996
2.10116
4.73284
2.93229
4.87133
3.73928
2.47584
1.56153
0.789561
5.59861
6.80561
4.37258
9.20052
8.45676
4.50518
6.40778
6.74013
6.76277
4.82935
4.72189
0.61458
0.687899
3.28022
5.53781
2.43982
2.45876
8.47948
9.69389
4.06192
4.29321
2.66462
7.00729
0.637418
1.18722
3.31612
2.92767
2.46323
2.8981
3.2316
2.28027
2.91188
8.46933
2.26289
1.81756
3.29324
1.63994
5.09325
4.64623
0.801175
2.13836
2.69851
4.72023
3.23003
2.03594
9.95304
1.06661
3.65761
1.42218
3.01969
2.56619
4.53861
7.37847
7.77064
4.98412
1.71128
0.649439
0.75519
2.5298
8.79173
7.62573
0.814567
3.9095
4.98064
2.95651
4.08417
2.07228
3.78426
2.7669
3.42723
6.04652
0.823903
2.38372
0.842561
6.68754
3.11156
0.776009
2.02443
3.88048
2.98859
2.83123
2.80946
4.39619
4.70809
5.01183
3.55615
4.17584
1.3568
0.704122
4.08023
6.73558
9.7871
8.38056
3.82371
4.23658
6.98541
5.31309
6.48103
0.633796
0.624965
6.69514
0.646463
1.46033
2.38746
5.14618
4.62669
4.31992
10.2213
9.51319
1.26326
7.77486
9.4258
0.900231
4.35997
4.23517
2.14296
4.23812
2.24579
1.15931
5.0443
3.27391
2.80745
5.8745
10.8262
4.51731
2.11281
5.23434
0.653025
2.70131
4.06694
0.733896
0.640267
3.02514
5.21912
0.734155
0.684006
2.05423
3.33205
2.19627
1.76239
2.50631
2.57709
4.98629
10.7465
3.19346
2.20436
2.4426
3.41388
2.45982
1.71841
1.76021
3.40627
4.22323
2.76008
2.55839
3.03658
3.35327
0.809808
0.834304
1.94456
2.00289
5.30086
0.809785
0.716194
3.72528
1.61538
2.47276
2.24847
7.14939
0.96144
2.95055
8.09812
7.65371
9.67315
8.03536
3.46992
2.64331
4.14804
4.52639
1.14338
0.914989
2.14347
5.47083
1.76858
4.90543
1.87151
2.82008
3.11211
4.72734
4.99487
5.7045
5.77546
2.35229
1.91751
9.31334
7.39547
2.70971
3.06613
3.32129
0.88506
3.17868
2.07142
2.60012
3.06248
3.66662
1.43198
2.04568
8.22693
5.46325
1.29783
1.88615
2.75727
2.84496
3.99373
0.718106
1.73204
3.86869
2.97083
3.14597
3.46673
3.68315
2.23338
8.95432
1.8533
0.745978
9.47448
4.6978
3.31538
4.56588
2.79873
0.75564
0.773867
2.11881
1.11348
2.66684
3.73372
6.06111
2.11178
5.53154
4.21168
1.27816
0.952813
3.73844
2.39281
0.863354
7.39457
2.26762
2.75777
3.17948
2.51087
2.88235
5.03031
4.84627
5.73586
2.06104
2.43108
2.38202
3.44067
9.17291
1.58211
3.15106
4.13556
3.18981
1.71967
2.65751
6.07791
4.82768
2.74108
2.49153
11.8853
5.11424
11.8507
9.91229
2.93253
8.94748
4.23981
4.40667
10.3999
2.89388
2.70974
2.30547
3.32293
1.96968
10.1662
2.72567
6.00024
2.665
1.25469
1.96623
3.20276
3.07438
9.46662
5.63536
2.52252
2.28783
7.80425
8.11143
3.60734
4.8574
4.14457
2.93047
0.886695
0.428749
7.11529
2.68013
0.622653
8.10468
4.70926
8.49552
1.46328
1.88164
1.33089
1.80757
2.64688
2.78652
1.82831
1.67534
3.00521
3.0985
3.42956
1.11828
2.50031
2.03368
5.29781
1.60604
4.27371
1.96891
2.25909
1.73972
2.69694
2.29835
3.94571
3.05672
2.80237
8.63671
2.41884
8.38224
5.43102
1.00392
12.8961
0.912614
2.60608
9.33117
12.0601
3.41754
2.55276
2.70955
4.97201
2.31566
3.08413
1.79504
4.75701
7.70186
6.78089
1.54671
8.86523
0.709256
3.90524
3.09054
1.22651
1.99024
3.08872
5.26526
7.12912
3.06678
1.69144
1.79725
2.36655
1.27579
1.92008
11.9377
2.84275
1.14269
2.12544
8.77287
0.908647
0.745267
5.37422
6.19416
5.9944
8.23973
6.61911
0.664796
4.97916
1.72101
4.81623
4.37617
2.41915
5.23799
4.91106
5.90829
4.40036
4.7709
4.63044
4.94101
2.41969
2.45286
0.929024
0.914675
5.57525
8.42561
4.78719
12.664
12.7426
0.679252
3.84192
5.97502
2.71273
4.29981
4.44986
3.61773
4.46344
2.70449
8.1398
2.5196
2.90502
2.28843
1.08901
1.41939
1.18195
2.71537
11.7908
1.57207
1.5072
2.53907
2.16658
9.42916
2.13585
0.739624
2.50336
0.646974
3.23372
3.46492
5.01957
11.8379
3.36791
2.60472
2.53209
5.04236
2.09144
9.87926
10.2428
1.8776
1.49035
9.65055
3.12045
2.54477
5.67131
4.42423
4.18435
2.1474
3.46206
1.98103
1.30816
2.6353
1.97427
4.59573
2.22656
7.46827
1.36276
6.44222
5.52813
5.72921
6.1384
3.19387
3.71856
1.54045
2.03057
2.50804
4.20042
3.94891
0.773932
1.50458
0.580637
2.46094
3.4642
4.92154
0.587606
2.70029
3.99682
2.19111
3.21971
6.83815
3.63345
3.06281
2.97905
3.04589
1.50681
1.16848
3.02564
1.10915
2.06529
2.36522
7.05498
7.94504
1.29527
0.727344
8.97765
1.22156
3.72292
3.64754
2.53152
3.78068
7.1707
2.43253
1.16679
3.89246
5.22511
0.714758
5.11851
9.52492
3.68739
4.25262
6.26245
2.68806
3.03065
4.41345
4.98907
0.599942
3.00081
2.0048
2.81324
0.729643
0.973216
6.7331
2.15392
2.81531
3.20791
4.33468
2.58355
4.14605
4.31893
4.67625
2.80853
1.45014
1.29512
3.0936
0.66666
1.36643
2.39349
6.49888
2.00793
3.42966
2.05384
2.40698
2.42259
9.18015
0.756793
2.53706
4.56801
6.45385
4.97168
5.2687
3.36103
3.11168
0.604371
5.36396
4.17223
2.49922
2.7217
8.54048
2.41929
2.38281
2.64196
8.50454
6.33035
9.1305
4.08515
4.13488
4.73322
10.2855
2.55765
3.19473
4.58269
6.12965
2.36028
3.33638
3.61435
3.55622
1.60437
1.32038
1.58462
1.71782
3.33343
2.91166
3.4646
2.72666
1.53362
1.78648
7.36102
4.06449
7.01765
8.5483
9.38633
0.580042
3.33649
2.73368
4.30755
4.32646
3.51447
3.90553
7.43252
1.58195
5.94962
5.4479
0.844448
11.4989
8.12678
6.4468
4.84475
3.18632
3.54028
2.61825
3.06674
1.42434
0.876045
4.33647
7.28268
2.40941
3.38582
1.21386
3.13268
3.12954
4.85797
1.43485
8.31338
9.02569
6.81425
3.93802
2.31051
6.16091
4.32917
4.01701
8.25944
4.78563
4.6992
4.1514
1.49317
1.74897
11.0739
4.48927
2.98616
0.650263
1.24437
3.54552
3.93302
0.536895
0.630517
2.27588
6.63126
1.64069
1.028
0.722997
0.725997
1.45722
0.70807
7.3912
4.63035
0.686657
2.35575
7.82636
2.5718
1.71052
1.28949
1.03715
4.24345
2.00748
3.36421
2.98432
5.66192
2.70963
1.5203
8.09652
9.24934
6.22526
2.78773
7.01773
9.07036
0.874881
2.30419
1.59403
2.73394
2.38869
7.67787
2.49063
5.15778
0.810726
6.42346
5.5753
4.82735
4.50598
2.53026
0.740402
2.83342
3.18365
1.15756
2.83707
7.39212
2.57139
2.92988
3.45547
2.00669
3.60358
2.19754
1.35755
6.60095
2.61928
3.20385
3.46565
4.69774
4.55357
11.2308
10.3506
1.27566
7.36551
4.66904
2.01027
6.97145
1.77442
2.58756
6.61922
6.19285
4.76148
2.00184
4.98008
2.42178
2.08843
3.14955
0.649698
4.56982
4.29086
0.796053
0.856724
0.879174
2.92086
3.3876
3.08592
3.15993
1.9368
2.16276
10.6905
0.818714
0.87929
1.74986
2.03537
2.74462
4.72403
5.89801
6.51911
6.11717
2.47835
9.37832
5.31812
3.692
4.32017
0.616021
3.26274
0.616428
0.687201
1.29452
9.80135
2.05384
10.1123
4.25083
4.92512
1.24374
7.54653
2.55937
2.10133
2.34218
1.42028
3.46308
8.55067
2.60295
5.28523
1.20977
6.55234
2.36527
3.50628
2.09216
4.06925
3.24959
2.88353
9.36479
8.54603
9.0077
0.72614
0.573016
2.62156
2.21726
4.10018
2.33343
4.2976
1.27887
2.4792
0.605411
8.48622
6.43234
7.01378
1.96539
7.91478
2.2916
7.78183
0.770711
2.43136
1.99181
12.9731
2.73257
3.76097
3.35433
7.98866
8.5051
9.02301
3.0673
8.17719
3.22384
3.27955
3.07268
3.75149
6.83442
2.67394
2.38582
9.59866
7.35193
1.67691
0.594805
2.93863
2.26093
6.71349
2.7237
2.801
1.62578
4.65866
5.2925
2.72722
1.72419
1.46807
1.50122
5.10262
5.45263
2.44809
4.57864
9.02538
0.959685
0.766309
3.26766
3.39982
9.79665
5.41233
5.36063
2.04257
3.73175
0.711206
12.5058
2.52755
0.60914
0.709822
0.746422
1.06204
2.41183
2.28028
5.76193
4.94383
2.16537
3.64178
1.7784
8.84344
8.41264
2.18814
0.761262
1.38605
4.70427
2.20013
2.18018
0.733292
6.50789
1.63353
1.55838
3.90747
3.86572
5.18778
4.90957
8.66737
0.681199
3.55378
15.5564
12.754
2.59903
1.68101
9.99129
5.91665
0.592892
3.20744
7.38609
6.06762
9.79434
3.24258
3.41243
8.39088
3.38283
2.69128
11.1577
5.26755
1.88489
4.85801
5.81199
2.63223
0.847324
2.85932
3.68035
3.77674
5.02702
4.43306
11.2365
6.01937
2.91379
2.02349
2.45407
2.25562
10.2437
10.0422
2.13187
1.75052
2.44007
3.00896
0.904238
3.57669
8.37337
3.00309
7.33989
8.41296
2.67241
1.37341
8.8511
1.88893
3.44774
3.8097
0.598791
2.38264
12.6693
2.95435
4.75074
10.5061
4.26272
0.85278
11.6487
8.45668
8.7671
1.72199
3.65597
6.18772
2.78431
7.78167
1.17522
1.02886
1.09557
5.20656
1.25382
1.70055
7.78083
0.951867
2.66254
5.26186
2.85501
12.6076
5.47693
1.48359
2.75532
1.76553
3.8679
5.9323
0.575521
11.3827
13.9088
2.90764
0.751319
5.65974
8.71097
1.43838
1.02791
1.60485
2.23038
9.41935
3.54082
2.71177
2.5263
2.70706
5.64473
2.42487
3.79039
11.6783
6.66752
8.05036
2.88075
6.0931
3.43276
1.37782
3.62927
2.11666
0.64268
6.72673
4.02597
7.11519
5.28932
5.31911
5.54957
9.65256
3.15134
3.90393
3.12507
1.95129
1.96214
4.00858
4.44253
1.40232
4.65812
3.51648
2.13126
1.1042
1.96548
2.78733
8.17526
7.47347
8.39065
5.9712
4.93975
7.79035
4.74244
12.2569
1.86365
2.88519
11.7174
2.21576
3.61664
6.83803
0.722292
0.728201
4.02261
0.769469
2.06103
1.86519
3.28733
8.40663
3.45174
2.9871
3.53861
10.8387
4.48397
2.2512
3.79537
2.9506
3.45587
4.44047
10.4324
1.95211
5.25731
6.63527
9.03721
8.45979
2.35937
6.1119
6.02927
0.719849
2.51102
5.80423
13.1359
1.64968
1.57233
9.51276
1.54737
3.69421
3.1179
2.70156
0.86626
1.54705
10.4798
0.988219
10.9355
4.66317
4.39314
2.38937
4.82771
0.695635
4.74348
0.716977
13.7268
2.56793
2.13356
8.22616
6.33253
5.7634
2.4584
4.30777
1.67839
12.8745
10.0678
3.04819
13.0026
3.1765
1.89553
12.249
4.55435
5.76197
4.74103
1.59835
7.435
2.3117
1.15907
3.35394
10.8182
9.47564
7.68114
1.62914
11.3629
2.53847
3.94558
0.981689
3.14831
9.71377
13.2129
1.16879
2.37812
0.745831
1.52172
4.16832
2.3043
2.04219
7.28075
4.02588
3.88642
3.51379
3.81807
3.06986
0.777714
5.02071
10.9928
2.871
2.27897
1.78966
4.48189
0.6831
0.820701
2.57718
2.16871
4.11429
2.2148
9.41262
3.32779
3.79504
0.715093
5.68112
8.50191
3.01521
2.75269
1.57047
3.95108
3.29137
0.950105
2.57052
3.27146
3.17103
1.51266
2.46825
1.70841
0.701193
0.703011
8.31184
4.39597
10.7016
4.63494
8.19409
2.84928
11.1761
1.11937
0.893567
1.40433
4.38294
4.82966
2.98589
2.61951
7.7975
2.27535
0.730037
3.906
9.67836
3.89292
13.745
12.8139
1.58874
3.32898
2.75978
12.1627
11.7516
0.645009
4.12629
4.4923
5.13736
4.70214
2.42287
8.52818
3.00595
2.91867
4.19506
6.44553
5.00623
0.906348
12.0683
3.93543
0.789325
2.13868
9.93308
3.90331
5.94836
4.55275
4.12866
9.34923
2.1128
3.45184
8.26543
3.82841
4.42352
4.22133
5.22076
12.7023
2.64163
3.91835
5.29536
5.76392
2.47431
14.45
10.9142
1.25539
4.21779
9.75866
5.41471
10.5596
4.83031
1.70519
2.09815
2.60106
0.597201
5.14487
2.68433
6.04754
7.79437
8.59048
8.8733
0.958994
0.947712
0.769358
4.44535
0.746746
1.69225
1.93822
2.5834
1.96715
5.42817
12.9251
1.62655
14.1358
5.32539
4.64694
11.1048
10.309
13.6834
7.51932
1.92519
13.3479
4.20919
13.096
10.1983
9.34358
3.8388
12.4611
0.906423
1.02018
7.76614
1.70155
10.2861
7.57547
7.09497
8.3211
10.3794
1.3198
2.05632
3.27457
2.91865
1.97644
1.91038
1.21723
0.763418
0.897338
6.3873
2.47093
2.26603
1.2247
4.77983
6.81354
3.10129
7.81033
4.35687
5.46951
1.58656
3.0299
2.63701
2.60747
8.8927
2.05044
3.30024
2.33957
3.91445
1.64177
11.6548
1.38513
12.6348
4.23137
2.81526
4.19645
4.67692
4.24709
4.5604
12.3125
0.709935
0.690562
2.53228
7.20535
0.698377
5.2373
0.585849
8.34296
9.22153
9.60256
1.87368
6.84321
11.6839
2.4023
2.10877
5.57947
4.89056
4.5347
1.63545
4.6061
5.01688
5.92018
12.6758
12.6067
0.716076
1.57779
2.01981
11.5594
2.14174
3.12967
2.50668
3.47562
9.82954
10.8995
8.91266
7.60163
2.66296
2.93511
1.91389
1.47401
7.01781
6.61283
6.50783
6.64687
1.51805
2.81133
2.86822
2.54411
8.07844
5.19547
4.55611
4.27647
3.22681
2.49541
3.45935
9.11979
3.83159
5.02601
2.84655
3.3722
12.1717
9.94875
6.18464
2.56301
2.68808
11.0828
3.03256
2.97099
2.14789
9.50287
1.32789
4.90262
1.95069
2.10742
2.08042
1.51985
1.86444
0.960182
0.71779
7.91954
3.38392
5.1932
4.8021
5.45095
2.52904
1.10522
1.78205
2.79604
2.00642
2.56612
3.26053
2.70697
11.7707
6.86701
10.8596
11.9298
1.48574
2.24241
2.41802
2.21637
3.91798
2.23756
5.7195
11.2906
8.32384
1.68521
3.08402
13.2038
6.15055
3.56499
10.1681
0.749189
1.44302
1.27388
9.76005
10.1143
1.45488
1.4667
1.6858
2.35444
10.9085
10.2299
6.38015
2.87284
2.80355
8.68827
8.93187
2.42454
2.45398
6.18572
4.84415
8.10142
2.59769
7.26117
2.49398
1.41105
1.24104
0.647898
9.39293
2.21149
0.895957
9.0929
2.14918
0.914902
8.9159
3.41403
11.9481
4.21151
7.30853
2.95082
3.34246
10.7049
3.25145
0.685943
5.11332
1.92521
5.14626
1.9971
2.53645
2.43498
5.11661
1.45217
2.49638
4.94423
1.53745
2.63026
10.0102
1.67004
2.68521
6.32778
2.92618
2.67687
9.20196
10.3339
0.742034
8.13402
9.03265
4.35536
9.68546
0.81827
3.00251
2.23984
0.661728
0.713605
12.755
3.44126
3.35298
1.74833
1.74919
2.8736
2.01066
1.41739
1.41662
2.91704
1.09876
1.2613
4.19245
4.13278
1.82656
1.2828
0.941334
0.864887
6.60133
9.30104
4.90346
1.94817
2.851
0.77479
2.6004
2.94994
1.82032
3.42563
4.23909
5.62042
3.9721
2.21306
3.80302
7.5015
2.42884
2.12206
2.54731
11.3516
2.50305
3.82129
6.77257
3.02998
8.68292
5.50263
8.37668
1.78037
1.89905
1.82286
2.47641
2.38091
2.99413
1.8663
1.63966
3.78125
3.7434
2.42645
5.44872
9.0915
1.3979
3.77203
3.85661
9.57504
4.44354
0.744524
3.95804
2.92568
3.4315
5.76584
3.56547
13.0522
7.33795
2.88174
6.85161
2.86641
0.74864
8.24319
1.44184
1.80906
1.57569
8.26189
1.26173
2.77043
4.29106
3.13951
1.91149
1.30715
3.46678
7.2868
8.80057
3.96043
5.28794
9.03709
11.3101
2.21762
13.1983
12.5854
11.8237
11.7398
0.637129
0.646953
0.733862
4.36534
4.79532
5.91677
3.89858
3.24785
2.77817
1.77091
7.32393
2.31284
4.86318
1.11788
4.36329
2.76017
7.68182
2.83317
6.35426
0.755924
8.0042
7.8762
8.81724
8.06823
8.38732
4.35319
10.7164
6.59501
1.12695
5.0616
1.11574
8.0145
0.96959
2.47285
9.06026
7.95788
4.9373
4.18035
2.19824
2.81722
4.44711
2.58027
2.32504
11.2485
9.3605
5.4358
2.40646
0.739311
3.54496
2.98296
12.0696
3.13903
6.41122
4.63432
9.95934
4.16925
1.89064
4.08829
2.02986
3.99954
3.8052
2.84753
5.10704
1.31549
5.56794
6.67017
1.91756
1.48197
2.1433
7.09562
3.60787
3.03538
3.36008
3.21537
3.80543
4.3673
4.2375
1.68585
4.89264
11.5071
3.49919
1.50272
1.96139
6.83496
7.52113
2.32231
3.11644
4.29889
4.48378
8.9295
10.6649
0.862738
5.81611
0.541036
10.5626
9.36947
4.87682
4.45229
9.04837
3.08633
5.14939
8.55829
6.41364
6.1688
4.1258
1.01303
7.70748
3.19642
5.49871
4.08006
8.1731
2.39074
7.26116
4.54514
3.35814
0.895092
0.71785
0.951591
3.89254
3.32807
2.45189
2.25463
7.26822
3.80969
1.50342
3.00856
3.98987
4.85223
7.58619
2.72732
2.37783
3.7319
4.43467
0.711189
1.39433
1.19481
5.16212
1.55173
2.56852
2.05542
2.50843
5.81163
2.68781
4.63615
3.28117
5.48581
5.39268
7.77263
2.78577
2.40004
2.23488
4.51337
3.38824
2.6547
2.72941
4.04815
2.09097
1.49717
10.0395
7.3822
9.83134
0.731914
0.731135
0.7062
1.66975
2.5546
2.03923
2.03725
0.983663
0.956644
4.35644
3.01236
2.84539
4.05429
0.917114
5.53505
2.78965
8.96456
5.33438
1.53905
2.2742
7.55612
2.17631
2.49166
2.80403
2.90392
2.85697
1.29303
5.10178
2.02876
0.862572
12.2651
1.20531
1.10999
2.3517
1.1543
6.1773
7.87211
7.3096
2.69431
4.59706
4.66616
2.45906
6.19339
4.80532
3.19084
1.31172
1.50929
0.603874
7.16309
8.48121
10.5931
9.86682
1.04734
3.41625
1.40685
3.88157
3.85342
1.87707
5.4871
1.70874
3.01286
3.04731
7.58345
8.48409
0.820838
10.4286
9.61707
3.31679
8.16686
3.19542
4.92496
10.5894
2.63045
2.56442
5.92382
2.85397
3.42771
2.38263
1.70652
8.30936
5.23514
12.5061
0.718203
6.2656
3.78781
3.00713
2.44342
9.23927
10.4922
8.13431
7.9479
3.00487
4.51494
2.47719
6.51137
4.95987
2.23598
5.1104
1.19859
11.5505
2.54618
4.37426
3.92419
2.78154
2.61526
0.838269
3.7296
0.653465
1.90144
2.86684
7.54794
12.045
2.41747
0.633711
6.00108
3.83291
1.59375
2.06689
4.14043
4.17851
5.71027
6.79314
1.71499
7.96888
4.68484
1.97815
2.81949
1.26479
1.65884
1.95598
3.97393
4.33985
4.01523
3.21097
4.66102
2.89469
0.662187
4.71716
4.77404
7.11071
1.16597
4.37172
1.13502
1.10222
12.1332
6.80237
0.656397
6.81094
3.75399
5.65813
4.76611
3.40217
3.72433
7.58903
2.37878
0.715261
7.73068
1.87928
2.60723
3.01143
12.0872
1.8462
4.56176
1.92088
4.74696
0.592889
2.73471
4.70022
4.1537
12.1065
2.09877
4.83332
5.38307
3.47683
4.09227
0.780721
3.00424
4.62225
5.0965
1.38647
2.56844
2.20867
4.38951
5.73983
4.43062
8.66662
3.08209
1.73366
2.21752
3.04362
1.83073
5.80113
0.738719
3.2627
2.83598
3.49958
5.73725
10.5856
5.46342
7.05495
5.82439
6.12053
1.76035
0.595527
2.61728
2.84182
3.19946
3.37283
9.09412
4.38603
3.15873
8.85851
2.97909
1.4899
3.25364
10.1618
8.34207
1.57778
6.72523
5.7255
4.85811
1.6791
8.42721
0.94524
3.5725
0.959117
0.90405
2.36985
2.286
2.44022
6.94289
1.97021
2.84858
2.61237
3.70398
2.23062
0.758771
6.63905
2.6351
1.08156
3.10907
1.24702
7.28429
7.84801
8.32609
11.4589
3.24778
3.90169
1.89996
0.70513
5.63666
0.668933
8.77817
8.78453
2.17004
3.60768
0.623787
0.79736
3.42951
3.49991
1.18562
1.08593
4.33615
4.16255
2.38519
1.96609
2.07433
2.26213
10.0658
3.11999
4.21911
3.72989
1.74656
6.75402
7.17827
7.87448
6.68566
2.7027
5.06507
5.23512
4.98803
3.90821
3.41813
2.66105
0.753107
11.6941
4.93824
3.09511
2.97588
4.10787
6.1486
0.620275
2.5529
3.55466
3.40735
3.91213
3.2431
2.92587
3.87947
1.26607
1.52314
3.07613
10.814
6.15642
5.77562
1.59606
2.6473
1.55835
3.23869
3.75342
6.81464
2.52713
2.13168
8.76266
0.799825
1.79187
2.82675
2.79832
2.77824
2.48114
4.66564
3.6724
0.581253
3.05725
4.29905
3.56669
9.06237
1.87184
1.45842
0.79981
5.43772
1.40556
1.91903
6.11432
1.4891
9.02292
6.39916
5.79858
3.51566
6.36318
6.82697
2.27563
5.17528
0.760781
1.43833
2.68853
2.30559
4.92993
4.75988
4.14131
2.60558
2.54012
4.54964
4.12594
9.2647
3.47829
8.16691
7.35515
9.0636
2.14137
6.47775
1.64118
6.31127
6.75793
0.840686
0.721428
0.671494
5.47741
1.649
1.85186
7.71027
4.05423
6.37959
2.66404
2.73309
2.50314
3.76998
4.33564
3.66817
1.08466
0.976168
2.34753
2.28144
6.31923
8.99229
3.34002
4.51246
2.85005
2.55842
4.06912
2.74781
1.11951
5.35175
1.69644
4.46926
0.822041
2.48469
4.30065
0.961683
0.631614
2.67571
9.35267
2.17176
2.02182
5.93352
7.44532
9.31462
4.37406
4.5003
2.79591
2.82294
1.48066
1.69831
4.68195
4.94484
9.94944
9.77356
4.07941
5.15058
4.01418
3.73121
1.43358
5.15579
3.3226
4.59089
5.19459
6.58286
1.54636
4.22655
2.92509
4.16209
1.95499
4.4186
3.02513
10.0892
9.71972
3.50889
2.50792
2.58351
0.806142
3.13267
4.22994
2.14609
3.70908
3.33852
2.98897
5.33817
7.68584
3.01424
4.4598
2.95014
3.31687
2.5171
7.64301
2.91547
3.89319
11.4353
11.6255
7.75516
5.91501
1.42502
3.65625
6.07353
10.5127
10.1224
2.89854
4.08992
4.3268
4.58062
2.42708
6.17076
1.98706
2.15776
9.18827
8.18107
2.18423
4.12506
4.02174
5.0124
1.91427
3.06616
2.43266
3.0929
0.840903
0.82346
4.86349
0.792186
3.2459
2.17954
7.41823
0.968511
3.07633
1.70465
5.19056
2.10485
4.04017
3.75323
2.35371
4.44721
5.51846
2.73777
6.36728
1.97561
2.23654
2.35485
2.14336
2.42602
8.16991
1.98855
2.84239
3.05931
9.32676
2.90684
2.7857
2.09853
6.78661
2.77221
12.0414
7.6453
7.14167
6.80614
6.11766
3.09488
2.916
2.87881
3.02025
2.99882
7.36603
1.85124
6.14984
4.37134
10.1112
7.62841
4.7201
2.33852
1.27001
4.76164
0.785683
1.96637
2.51555
1.61472
6.27966
9.71463
6.09834
7.70817
6.4014
1.88665
10.5153
9.89713
1.4364
7.73578
2.37258
7.58577
2.04599
2.51803
3.11727
3.73704
5.79432
2.39818
1.2087
4.65332
2.60191
3.08317
2.51662
2.51821
2.49966
2.95557
3.16968
3.14677
1.98271
2.35821
0.74762
2.48684
1.71459
3.93835
1.62029
4.44948
8.62178
8.51822
8.44062
9.02472
2.57676
1.79223
3.88378
2.18061
2.95197
1.61048
2.15159
2.20314
0.949085
1.94994
4.76991
2.35526
5.97802
2.36577
5.43195
2.73791
8.55895
1.99074
5.17252
3.39304
5.90586
2.34158
1.06261
1.07809
5.65317
3.25398
4.54908
1.95436
2.35344
3.07003
4.75779
3.02641
2.50529
1.54868
2.20658
3.12701
3.1887
0.777475
1.86552
0.783788
2.34173
2.20145
3.29703
2.77841
5.07355
1.95852
11.6472
5.52883
4.1739
5.36446
5.79133
6.64654
4.57958
3.11502
1.08423
2.78026
2.67469
6.54179
7.85226
1.78727
3.04971
0.479666
2.94509
8.61824
3.05119
2.60459
3.41189
2.7574
3.63997
2.81982
6.60579
6.26351
1.51432
1.74096
3.22102
3.74829
0.688312
1.36986
1.35772
2.7755
2.85992
3.26227
3.71736
3.59844
0.630978
5.48312
4.22009
2.15013
3.44058
9.73067
5.72684
1.8114
2.35254
3.80498
2.36787
3.97966
4.79496
8.76763
9.75992
4.0591
3.55087
4.27627
7.07874
2.95619
2.50291
10.6821
4.58977
1.73696
1.99727
6.88426
0.883988
4.86395
9.66868
2.42976
4.75019
4.91352
9.85395
2.64833
3.37175
9.22519
2.38014
3.47759
1.54157
0.810981
2.34118
3.04106
5.26783
5.34249
5.19946
5.37676
4.87399
3.09147
7.05995
8.08272
7.56655
1.92285
7.53081
3.82757
8.29351
3.36848
3.59551
1.66365
2.20196
2.60612
1.37741
2.4173
1.67889
3.44139
3.94547
2.04588
1.58621
9.50593
8.82687
6.56093
2.60516
1.84755
3.15314
3.414
3.33776
0.80417
1.78557
8.58011
0.797647
1.07482
5.18287
4.40476
5.54529
3.28522
5.18979
1.68155
3.56594
3.93035
2.35137
8.29036
1.35163
0.703485
5.83476
7.93502
8.10658
1.58237
8.99014
1.57192
6.72376
8.08294
1.83851
2.101
1.83055
2.83992
2.26496
2.41494
5.31552
1.11338
4.30938
0.655855
1.63933
2.7678
0.671465
4.29331
2.34279
4.90104
2.08584
3.65569
0.635163
3.85142
3.62844
4.33166
1.77628
0.859005
3.40474
6.5169
3.11255
4.28423
2.24295
1.79005
4.31339
1.87554
9.05443
1.00794
3.98816
3.25442
2.75976
4.96035
1.14414
1.3218
1.17744
1.09426
7.69867
1.82825
2.48399
6.49695
4.05654
1.07091
1.29609
10.0741
3.0426
3.95042
9.23963
8.65631
3.8425
3.8829
2.2654
4.87358
5.62016
1.9032
1.86174
0.937022
10.5534
9.91564
2.07466
10.3878
6.33456
1.94685
9.74807
8.16444
0.947932
3.68563
1.2954
1.31009
9.62183
8.98654
5.21249
5.56846
1.06142
3.44962
8.12432
7.63075
1.06048
1.60988
0.883715
1.68752
0.682851
4.67649
2.10629
5.90377
10.6988
2.14172
8.7
2.93036
5.78373
4.88551
1.33738
11.4526
0.65469
6.14758
7.73796
7.7866
3.57814
3.35343
0.69233
9.78382
8.42364
6.30379
7.05248
3.77958
3.27097
2.18333
1.80537
1.81519
9.22574
9.4908
3.35365
1.46988
3.30463
1.31215
8.41921
2.30998
2.51351
3.62032
4.20113
10.1949
1.85664
9.14826
9.46787
8.7704
8.8257
1.32814
5.3364
5.74754
2.59233
0.846088
7.75449
3.76028
2.30708
1.52284
1.71231
4.31969
2.36369
3.12628
2.47327
7.46964
5.85653
10.682
7.75735
1.1971
1.55246
2.29089
2.14086
2.24741
1.79945
1.33867
2.91988
3.37026
3.1124
3.45946
5.67804
4.06468
5.39928
4.02307
3.82291
2.05992
1.92986
2.15589
7.34057
6.53708
1.65343
1.95697
9.74467
1.69188
1.72935
6.25393
2.07885
4.72136
2.26211
3.46175
4.6286
4.90369
1.2439
2.81977
1.36677
4.27949
4.4627
1.9551
6.97659
3.13929
1.27128
4.12824
1.82029
3.32015
0.792345
2.23727
0.56424
8.50856
6.16536
2.35837
2.21033
1.03557
0.988462
1.9851
9.65985
2.26861
2.76506
8.58566
0.595406
0.657975
2.83345
2.65996
1.81575
4.35577
3.48711
4.64217
10.5608
2.09033
1.45153
2.12403
9.88589
7.09301
3.9338
4.03051
2.03954
5.12194
2.2507
0.722033
3.65772
3.96303
4.02699
3.90763
7.31664
3.5375
2.50908
1.16229
3.18628
1.74696
3.36433
8.10486
1.66247
0.708276
5.02669
3.47601
3.27758
10.8695
3.67266
1.99258
3.86833
4.73657
2.01612
2.45186
7.3007
3.33674
1.76
7.50729
0.714289
9.23173
2.59252
2.20132
3.72547
2.373
1.82127
6.94494
3.24586
4.35493
1.47339
3.96273
8.53602
1.10725
2.20187
6.09741
5.85048
6.91965
9.21171
4.40608
2.52841
6.14262
7.46934
1.73797
0.804792
1.35503
7.60002
1.69712
1.2018
6.92428
5.02421
3.91444
0.667054
0.710661
1.36273
1.03753
5.25302
4.94034
2.07433
4.4701
4.91866
1.72823
1.73755
8.06834
1.49055
3.00322
1.80179
2.12606
3.96134
4.10976
2.82626
7.11796
4.33306
3.48419
1.51624
3.42928
3.5314
1.12057
2.61723
5.28412
2.57922
7.92812
7.41593
5.13129
1.38813
6.56948
1.03214
3.49236
1.0961
6.70515
7.41554
5.70771
3.19019
0.772269
8.90429
8.34148
3.1154
2.05494
2.03546
2.27932
3.00109
0.6011
1.99117
2.67374
3.70908
4.61423
2.60396
2.63764
1.85705
5.71879
5.09701
1.14666
2.47607
2.34426
1.53155
7.8254
2.0368
4.98996
3.21848
1.34685
5.97148
0.682929
0.701063
8.74737
8.29064
3.19362
3.18336
0.728553
3.49301
7.72402
2.01547
1.80004
4.36017
8.64541
9.01258
4.85238
4.72564
4.45222
6.85748
2.67296
1.47462
1.5144
3.84357
2.56802
3.77999
3.30082
5.21552
8.28699
8.87605
1.60128
1.34622
8.93486
4.93486
4.69545
6.85662
0.843139
2.41765
3.54797
2.12383
2.47763
3.09891
1.75558
8.43841
7.0885
9.84561
8.73293
0.619843
2.27159
2.9072
7.53759
0.67453
5.30353
5.24841
0.693238
2.07775
7.89452
2.87473
2.15138
0.683437
1.67822
3.83285
3.27102
3.93171
0.695827
1.40784
4.24376
4.67672
3.43029
1.06419
7.87942
4.4397
3.24631
1.67056
1.3969
2.88417
5.24938
5.55871
0.702953
3.57664
3.08253