/*--------------------------------*- C++ -*----------------------------------*\
| =========                 |                                                 |
| \\      /  F ield         | OpenFOAM: The Open Source CFD Toolbox           |
|  \\    /   O peration     | Version:  2212                                  |
|   \\  /    A nd           | Website:  www.openfoam.com                      |
|    \\/     M anipulation  |                                                 |
\*---------------------------------------------------------------------------*/
FoamFile
{
    version     2.0;
    format      ascii;
    arch        "LSB;label=32;scalar=64";
    class       volScalarField;
    location    "10";
    object      nut;
}
// * * * * * * * * * * * * * * * * * * * * * * * * * * * * * * * * * * * * * //

dimensions      [0 2 -1 0 0 0 0];

internalField   nonuniform List<scalar> 
308140
(
0.000934815
0.00138613
0.00141785
0.00097147
0.00144861
0.0014397
0.00125196
0.00114111
0.00110647
0.00103477
0.00108356
0.000905342
0.00109442
0.00104701
0.00109533
0.00120478
0.0012893
0.00143768
0.00139092
0.000968401
0.00143656
0.00102208
0.00126252
0.00122332
0.00145989
0.00156123
0.00140905
0.00133514
0.0014027
0.00104227
0.00111029
0.00106154
0.00195429
0.000953157
0.00160801
0.00136589
0.00156655
0.00115683
0.00114546
0.00117036
0.00241064
0.00124243
0.000985503
0.00110211
0.000694408
0.00126781
0.000772449
0.00112894
0.00113904
0.00150478
0.000742846
0.000920836
0.00116617
0.00116145
0.00110733
0.00132179
0.00142651
0.00125362
0.000826682
0.00100813
0.00146851
0.00116585
0.000805568
0.00145692
0.00113786
0.000979726
0.00102632
0.00101052
0.00104595
0.0011696
0.000912075
0.00166794
0.00114068
0.000890562
0.00266416
0.00178319
0.00136095
0.0011908
0.00143091
0.00107293
0.000877345
0.00127957
0.000591554
0.00238383
0.000599672
0.00103021
0.00116203
0.00117913
0.0012021
0.00164784
0.000950626
0.000763979
0.00149553
0.000669223
0.00205266
0.00181292
0.000703502
0.000745842
0.00102712
0.00120107
0.00127377
0.00131022
0.00100938
0.000868722
0.0011252
0.00128237
0.00155222
0.00124885
0.00105071
0.000987281
0.00104632
0.00139016
0.00131284
0.00134624
0.00137633
0.00107591
0.000994301
0.000929819
0.00150933
0.000588195
0.00139993
0.0013847
0.00165922
0.000923327
0.00153361
0.00113641
0.00105331
0.00156458
0.00150896
0.00112311
0.00128922
0.000883365
0.0015845
0.000914694
0.000811209
0.00172763
0.00148622
0.00105001
0.000993203
0.00119327
0.00122308
0.0011481
0.000913569
0.00129476
0.000755889
0.00117298
0.00115789
0.00126598
0.00125062
0.00131097
0.00127122
0.00120899
0.000912974
0.0010092
0.00138125
0.001542
0.00110485
0.00098787
0.000939936
0.000866517
0.00063439
0.001814
0.00220874
0.00118266
0.00181818
0.00171341
0.0006851
0.000860247
0.000780566
0.00108975
0.00150628
0.00152175
0.0011993
0.00139607
0.00139287
0.000968435
0.00151857
0.00124401
0.00127191
0.00175389
0.000939145
0.00116938
0.00100565
0.00176012
0.00182134
0.00123248
0.00154284
0.00133577
0.00136815
0.00149402
0.00110026
0.00124462
0.000720856
0.00136853
0.00098565
0.00124979
0.00131014
0.00135722
0.00125904
0.00150056
0.00120678
0.00146447
0.00114659
0.00109142
0.00146045
0.00132609
0.00138349
0.00161454
0.0011739
0.0012048
0.00133469
0.00122503
0.0014523
0.00132897
0.00147416
0.00102476
0.000952472
0.00111017
0.00129989
0.00146341
0.00164893
0.0019025
0.00147116
0.00130944
0.0013521
0.00117233
0.000986298
0.0010796
0.0011489
0.00139452
0.00132068
0.00109934
0.000668532
0.00127643
0.00138701
0.00130923
0.00120723
0.000865433
0.00125773
0.00138054
0.00147098
0.000963221
0.00119908
0.0014331
0.00137147
0.000661193
0.00132833
0.000897579
0.00132771
0.0020418
0.000748979
0.00110697
0.00170042
0.00119681
0.000994115
0.00169363
0.00143191
0.00168005
0.00111862
0.00127323
0.0012101
0.00149368
0.00183442
0.0016178
0.000852096
0.00114315
0.00132617
0.00101865
0.00102531
0.00121901
0.000928469
0.000921925
0.000803178
0.00106651
0.000854107
0.00139472
0.00126387
0.00138951
0.00101256
0.00129505
0.00110202
0.000834264
0.000964033
0.000957021
0.00134407
0.00116294
0.00143091
0.00117766
0.000635254
0.00158978
0.000933304
0.00106489
0.00169473
0.000725929
0.00155545
0.00144901
0.00114078
0.00109672
0.00109018
0.00133617
0.00123411
0.00152904
0.00193282
0.000953986
0.000933534
0.001386
0.00139039
0.0012937
0.00121794
0.00164606
0.000906865
0.000956936
0.0011345
0.0012039
0.00117052
0.000941351
0.00115358
0.00217256
0.0015833
0.00119651
0.00154275
0.00125707
0.00192299
0.00165531
0.00174391
0.00100943
0.00140545
0.00130619
0.00100042
0.000796629
0.000638932
0.000979024
0.00108279
0.00146384
0.0014222
0.000895945
0.000926369
0.00193936
0.00138628
0.00105814
0.00133188
0.000686336
0.00105724
0.00154236
0.000918729
0.00082558
0.00128607
0.0015097
0.00159283
0.000871249
0.000996873
0.000687908
0.00147281
0.00090781
0.00104006
0.00127085
0.0014544
0.00145584
0.00148308
0.00114873
0.00104031
0.00136063
0.00141508
0.0008582
0.00147279
0.00128751
0.00128895
0.00176251
0.00134632
0.000717437
0.00100959
0.000900291
0.00122457
0.000790267
0.00139988
0.00134863
0.000924213
0.000981141
0.00216472
0.00123557
0.00118083
0.0011427
0.000847278
0.000672941
0.000876455
0.00113361
0.00173859
0.00151489
0.00149514
0.00105772
0.00115704
0.00114931
0.00147261
0.00139711
0.00145335
0.00106442
0.00102552
0.000974905
0.00138749
0.00158518
0.00159135
0.000829892
0.00116589
0.00145183
0.00124083
0.00138622
0.00105283
0.00126701
0.000869352
0.00114508
0.000793921
0.00102539
0.00119785
0.00143436
0.0008415
0.00176706
0.00126948
0.00123614
0.00114149
0.00113513
0.0011894
0.0011499
0.00109797
0.00139305
0.000690631
0.00129489
0.00123515
0.00166882
0.00133261
0.00144349
0.000715239
0.000577734
0.000906059
0.00120351
0.00133268
0.00111625
0.00117046
0.000910958
0.000916813
0.00131406
0.00110169
0.00109592
0.000927059
0.00150055
0.00105531
0.00148228
0.00124023
0.00146843
0.00117281
0.00111035
0.0018526
0.00149522
0.00154912
0.00148008
0.00149867
0.00169012
0.00108524
0.000963366
0.00124932
0.00166775
0.00114569
0.00149946
0.00125023
0.00114571
0.0014723
0.00141988
0.00160634
0.00123151
0.00208901
0.00118319
0.00116038
0.000945156
0.00143385
0.00116436
0.0013155
0.00124058
0.00141423
0.00146937
0.000783306
0.000805908
0.000814372
0.00148742
0.000805347
0.000720402
0.00117947
0.000980671
0.00109102
0.00106557
0.00140936
0.000968193
0.00117729
0.00102473
0.0010751
0.00127677
0.0012033
0.00130366
0.0011894
0.000941368
0.000838315
0.00115351
0.00127003
0.00131196
0.000700362
0.000867599
0.00139107
0.00139848
0.00137313
0.00124032
0.00113443
0.00152995
0.00169456
0.00137948
0.0012559
0.00114915
0.00102944
0.00119491
0.000963077
0.0013394
0.00146802
0.00148693
0.0011148
0.00160717
0.000918614
0.00142633
0.00128136
0.00111601
0.00100288
0.00081439
0.000878562
0.00100641
0.00119769
0.00117286
0.00194225
0.000941054
0.000910168
0.000979402
0.000956562
0.00112243
0.00112232
0.00114935
0.00100228
0.00166815
0.00153909
0.00118258
0.000618035
0.000932691
0.00106924
0.00105879
0.00309061
0.00140444
0.00148109
0.00156888
0.00139283
0.000869103
0.00153308
0.00108268
0.00160738
0.000933287
0.00158365
0.000890753
0.00107411
0.000794491
0.00158877
0.000798538
0.00126714
0.00101835
0.000636237
0.000871441
0.00106667
0.00154952
0.00142594
0.00146094
0.00163782
0.00101466
0.00138452
0.000918128
0.000963991
0.0012602
0.00123397
0.00132698
0.000874002
0.00136289
0.00125492
0.0016938
0.00134246
0.00194137
0.00171495
0.000797605
0.00156155
0.00131006
0.00121951
0.00157429
0.00153222
0.00123927
0.00121607
0.000866634
0.00138924
0.00107158
0.000975205
0.00135596
0.00122935
0.00136423
0.000788461
0.00128032
0.00122978
0.000991706
0.001664
0.00160963
0.00106054
0.00120311
0.00126046
0.000896773
0.00186366
0.000967313
0.000567759
0.00148947
0.00148758
0.00095844
0.00104248
0.0016419
0.000970311
0.000939623
0.00212902
0.00174896
0.00109441
0.0008931
0.001571
0.000992244
0.00156179
0.00143687
0.00136216
0.00111964
0.000932736
0.00114082
0.00133382
0.00128551
0.00118764
0.000908381
0.00089485
0.00106157
0.000990295
0.000994508
0.00138227
0.000921273
0.000733214
0.00131118
0.00123219
0.00115396
0.000986494
0.000888537
0.00112252
0.00117978
0.00143749
0.00189276
0.00126795
0.00162888
0.00106501
0.00114973
0.00114758
0.00126343
0.00119985
0.00105824
0.000889293
0.000882247
0.000865936
0.00132929
0.00133947
0.00112585
0.00121962
0.00101879
0.00103189
0.000934481
0.00125139
0.00129693
0.0013184
0.000951291
0.00176196
0.00102985
0.00112233
0.00106836
0.00120536
0.00122403
0.00129607
0.0012172
0.00115938
0.00159244
0.00115824
0.00109604
0.00113831
0.00114706
0.000944411
0.000977907
0.00146528
0.00137908
0.00105218
0.00184094
0.00128801
0.00127156
0.000976342
0.00104635
0.0008881
0.00152581
0.000859274
0.00093198
0.00110581
0.00111573
0.00100294
0.000892245
0.00169019
0.00119448
0.000856847
0.00126757
0.00116069
0.00101341
0.00148175
0.000926932
0.00104487
0.00102427
0.000971662
0.00129589
0.00136559
0.00136396
0.00155919
0.00130245
0.00152666
0.000947657
0.000995889
0.00133351
0.00121087
0.00145975
0.00148496
0.00119017
0.0010168
0.00130453
0.00122961
0.000896905
0.00094418
0.0010344
0.00115421
0.00162852
0.000957017
0.00120229
0.00172879
0.00113282
0.000918457
0.000847046
0.000950311
0.000719003
0.000906948
0.00128573
0.00102615
0.00135066
0.00113227
0.00146308
0.00132744
0.000915598
0.000950018
0.00129934
0.00114003
0.00110652
0.00121789
0.00144282
0.00140649
0.00143403
0.000920531
0.00134438
0.000976953
0.000849547
0.00113296
0.00134981
0.00146989
0.00134479
0.00132461
0.00120679
0.00141072
0.00121256
0.00104329
0.000856306
0.000829394
0.00141642
0.000879261
0.00107197
0.00110345
0.00130443
0.00125911
0.00108359
0.00134385
0.00133836
0.000970356
0.00122115
0.00133783
0.000817753
0.00115199
0.00115003
0.00106866
0.000809147
0.00155873
0.0007001
0.00135574
0.000832123
0.00124908
0.00123899
0.00159763
0.00135631
0.00112264
0.00102958
0.000897517
0.00164006
0.00157205
0.000917485
0.000911708
0.0010721
0.000820123
0.000933604
0.000858595
0.000872763
0.000832104
0.000983924
0.000890625
0.000989645
0.000993006
0.00103818
0.00141094
0.00109189
0.00137226
0.00108128
0.00096283
0.0013096
0.00154661
0.00147425
0.00127106
0.00107353
0.000691073
0.000660046
0.00117448
0.000862561
0.000956228
0.000967198
0.000948505
0.000960884
0.00250821
0.000964605
0.000932774
0.00102403
0.00135118
0.000609077
0.00130173
0.00124839
0.000758424
0.00107941
0.00144697
0.00121057
0.00151491
0.00150917
0.00180467
0.00183524
0.000925279
0.00117509
0.00124997
0.000884088
0.00154428
0.00127808
0.0012099
0.00103342
0.00149723
0.00130959
0.00121545
0.001104
0.001075
0.00142149
0.0014364
0.0018749
0.00179483
0.00108807
0.00106765
0.00122901
0.000880154
0.00131363
0.00102958
0.00152472
0.000985001
0.00210349
0.000861081
0.00143036
0.00102614
0.00173352
0.00123346
0.00161321
0.00118135
0.00179845
0.00149646
0.00102581
0.00110161
0.000895257
0.00127232
0.000823803
0.00143324
0.00138311
0.00122158
0.00123099
0.00123673
0.00132966
0.00151603
0.000953499
0.00141933
0.00100322
0.00187014
0.00101212
0.00113482
0.000848803
0.000587105
0.00101566
0.00120467
0.00137088
0.00101425
0.000921829
0.000987512
0.00117946
0.000987821
0.0011006
0.000937145
0.00146917
0.00103737
0.000931659
0.00160956
0.000901281
0.00109034
0.000928752
0.00186718
0.00119778
0.00125065
0.00105686
0.00112687
0.00111664
0.00162096
0.0010872
0.00236626
0.00184152
0.000705891
0.00143676
0.000924859
0.00150515
0.000672777
0.00111809
0.00162652
0.00118881
0.00129952
0.0020407
0.00143231
0.00125981
0.00143914
0.00159143
0.00120633
0.00128803
0.00109446
0.0010411
0.00151203
0.000826349
0.00125414
0.000846711
0.00111241
0.00107738
0.00158116
0.00114113
0.000895742
0.00136683
0.00101903
0.00163674
0.00122283
0.00134335
0.00130527
0.00101771
0.00105272
0.000979892
0.00127012
0.00117952
0.00125167
0.00118952
0.00341988
0.00172787
0.001102
0.000683352
0.00128508
0.00173402
0.000848327
0.00127611
0.000912841
0.00127564
0.00127174
0.00148553
0.00123239
0.0015066
0.00162628
0.0017651
0.00139556
0.00156647
0.00112259
0.000822875
0.000862552
0.000879367
0.00163087
0.00116895
0.00100232
0.000844981
0.000880084
0.0010374
0.00123232
0.00114093
0.000869853
0.000779003
0.00244422
0.00117063
0.00104548
0.000991998
0.0013148
0.00126211
0.000913217
0.000697988
0.00135201
0.000947286
0.00112376
0.00115048
0.00172321
0.000868803
0.00161747
0.00182891
0.00126304
0.00160995
0.000706122
0.00123964
0.000960006
0.00166925
0.00100791
0.00109468
0.00186343
0.00095392
0.000841268
0.00198951
0.000760417
0.000966017
0.00151784
0.00151011
0.00152583
0.00107052
0.000808395
0.000854248
0.00134957
0.00106779
0.000994348
0.00142104
0.000672555
0.00153486
0.0013656
0.00135756
0.000944037
0.000910071
0.00122328
0.00129932
0.0013312
0.0013112
0.00109395
0.000885116
0.00242767
0.0011682
0.00121277
0.000959128
0.000767735
0.0010251
0.00121135
0.00149671
0.000933769
0.00126712
0.00118464
0.00117831
0.00168489
0.001054
0.000753078
0.00103393
0.0011678
0.00128308
0.000952878
0.00151365
0.00151522
0.000912743
0.000975734
0.00136363
0.00136477
0.001062
0.00105296
0.000895811
0.00119323
0.00114892
0.00130615
0.00163341
0.000802169
0.000753786
0.00101027
0.00107946
0.00103266
0.00137127
0.00146904
0.000961721
0.00101247
0.00139787
0.00116614
0.00131654
0.00146862
0.00091558
0.00091446
0.000790639
0.0011844
0.00120668
0.00121971
0.0015828
0.00110179
0.00150637
0.0015511
0.00117108
0.000875
0.00141961
0.00140614
0.00164017
0.00147097
0.00143348
0.00164944
0.00125823
0.00119069
0.00100609
0.00110359
0.00112969
0.000838056
0.000939138
0.000972586
0.000790305
0.00122606
0.00155239
0.000949109
0.0012088
0.00118936
0.00166708
0.00153986
0.00117344
0.00124657
0.00166502
0.00113749
0.00126243
0.000898991
0.0007888
0.0013072
0.0014697
0.000750964
0.000939192
0.000820224
0.000878511
0.00100372
0.00136078
0.00124243
0.00120498
0.00102448
0.00141633
0.00121988
0.00109719
0.0011534
0.00110741
0.001979
0.0019228
0.00109026
0.000640585
0.000918538
0.00101749
0.00134539
0.00143877
0.00132015
0.00157529
0.000906017
0.00102003
0.00128934
0.000989784
0.00111252
0.00115768
0.000933821
0.00167155
0.00159872
0.00129556
0.00130799
0.000966161
0.00138613
0.00093767
0.00130966
0.00151394
0.000955653
0.00116253
0.00152712
0.00137329
0.00182883
0.00111617
0.00123266
0.000839032
0.00146153
0.00103621
0.00120633
0.000982453
0.00109176
0.00132599
0.00157967
0.00103018
0.00107534
0.0017792
0.00120452
0.00116467
0.00134614
0.00131095
0.00153255
0.00079517
0.000915895
0.00124423
0.00102723
0.00130963
0.00115192
0.00123628
0.00118958
0.00210969
0.00112628
0.00106671
0.00131383
0.00141101
0.00075523
0.00122697
0.00144917
0.00155489
0.00152355
0.00149044
0.00125212
0.00239587
0.000868138
0.0014884
0.00117893
0.000857729
0.000918876
0.00131622
0.000979784
0.000966853
0.00155413
0.00131054
0.00215002
0.00147511
0.00214475
0.00107227
0.000980044
0.0013651
0.000759768
0.000684513
0.00105579
0.00165907
0.00118145
0.000876483
0.00117889
0.00121466
0.00101025
0.00096357
0.00115518
0.00101966
0.00133951
0.00129564
0.0012788
0.00126739
0.000797666
0.00119561
0.00135237
0.000849709
0.00113469
0.00154509
0.00159939
0.00093272
0.00142898
0.00172317
0.00123423
0.00107568
0.00114983
0.00128416
0.00141934
0.000827558
0.0010602
0.00134441
0.00104388
0.00160467
0.00152436
0.00128327
0.00147334
0.00100234
0.00110199
0.000996998
0.00113269
0.000772753
0.0010387
0.00111057
0.00120118
0.00106131
0.00161906
0.0011589
0.0010579
0.00109007
0.00104405
0.000864944
0.00126922
0.00145557
0.00148511
0.00122819
0.00158569
0.00114984
0.00102932
0.00120515
0.00139371
0.0015258
0.00153332
0.00126364
0.00115545
0.00184997
0.00153684
0.00132507
0.00108064
0.00100337
0.00170998
0.00135522
0.00148006
0.000769746
0.000870272
0.000691724
0.00118961
0.000910817
0.000875212
0.000957857
0.000967226
0.00134223
0.00100259
0.00125092
0.00135541
0.00093059
0.000740648
0.0012924
0.00112176
0.00131166
0.00105004
0.000938474
0.00103938
0.00140937
0.00106649
0.000968189
0.00109142
0.00142965
0.00131865
0.00114419
0.00140281
0.000961912
0.00106898
0.00122237
0.00137542
0.000974328
0.00142747
0.00125202
0.00134633
0.00141055
0.00131213
0.00158358
0.00121666
0.000940479
0.00130187
0.00121987
0.000935554
0.000948333
0.00101254
0.000973275
0.00168232
0.000735593
0.00106181
0.00103603
0.00104501
0.00104299
0.00128807
0.000870703
0.00131194
0.00111378
0.00139604
0.00163241
0.00120052
0.00128492
0.00143868
0.0014217
0.00131202
0.00134584
0.00166826
0.0012663
0.00121749
0.00143281
0.00123907
0.00115813
0.00144247
0.00120859
0.000704952
0.00168379
0.0014521
0.00112739
0.00108382
0.00116891
0.000673549
0.000972729
0.000976104
0.000837146
0.00119537
0.00118385
0.000579774
0.00115589
0.000846786
0.00145666
0.00103949
0.00107137
0.00128386
0.000891008
0.00163918
0.00369023
0.0010036
0.00110408
0.000687767
0.000951115
0.00085852
0.00121131
0.00139187
0.00171076
0.00155364
0.00147424
0.00101291
0.00119291
0.000915379
0.00124888
0.000853673
0.00125212
0.000903134
0.000933172
0.00104666
0.00137331
0.00114383
0.00146614
0.000987088
0.00095206
0.000968481
0.000970829
0.00120033
0.00109084
0.00143939
0.000720212
0.00125643
0.00135087
0.000574709
0.00131052
0.000986007
0.00144658
0.000976316
0.000777185
0.00141698
0.0012581
0.000974384
0.00123706
0.00118635
0.00130271
0.00137631
0.000942554
0.000765552
0.00130825
0.000819912
0.00128474
0.00136277
0.00128543
0.0012194
0.00139212
0.000913378
0.00143578
0.00110403
0.00157078
0.000720255
0.00165529
0.000920831
0.00135406
0.000950421
0.00131819
0.00105492
0.0015471
0.000971839
0.00118894
0.00124045
0.00132331
0.00106174
0.0014772
0.00089051
0.00141033
0.00107999
0.00118709
0.001054
0.00194938
0.00280021
0.0012664
0.00109666
0.00156541
0.00126878
0.00146154
0.000786904
0.0015922
0.00089151
0.00135385
0.00153419
0.00160184
0.000822249
0.00123535
0.00128756
0.000843908
0.00080474
0.000944926
0.00100885
0.00110521
0.00104322
0.000718693
0.00125158
0.00146616
0.000566228
0.000998312
0.000773561
0.000723248
0.00138501
0.00106692
0.00115325
0.00102283
0.000826961
0.000993291
0.00201755
0.00183197
0.000837144
0.000901942
0.000945801
0.00109947
0.00161279
0.000873658
0.00113329
0.000887583
0.000637599
0.00148106
0.000782246
0.00132821
0.00128021
0.0015823
0.00101691
0.0011483
0.0014253
0.0012503
0.00155554
0.000948393
0.00134748
0.00092769
0.00102031
0.00121862
0.00133871
0.000965303
0.00115116
0.00139357
0.00089008
0.0014098
0.00179127
0.00159835
0.000706813
0.00121484
0.00135203
0.00113087
0.00088576
0.000948494
0.00128286
0.00116978
0.00114458
0.00170331
0.00105169
0.00119779
0.00129739
0.00142215
0.00184131
0.00110807
0.000885777
0.00150562
0.00132009
0.00111688
0.000897129
0.00137526
0.0019974
0.0018105
0.00136446
0.0012718
0.00116054
0.0013524
0.00102943
0.000525666
0.00121818
0.000823914
0.00132474
0.00106597
0.00126277
0.00145577
0.00155074
0.00125769
0.00130484
0.00102864
0.00157251
0.000752982
0.00126283
0.00135262
0.00087962
0.00106275
0.00126482
0.00117513
0.00105988
0.00136962
0.000736226
0.000718478
0.00146147
0.00138537
0.0010951
0.00161822
0.00101862
0.00113385
0.00152329
0.00120317
0.00137716
0.000963437
0.00201733
0.00110333
0.00108376
0.00128646
0.000599152
0.000957781
0.00104734
0.00107976
0.000845435
0.0012156
0.0015242
0.00117469
0.0014031
0.00111637
0.000854196
0.00166735
0.000862712
0.00117306
0.00085265
0.0011773
0.00127779
0.00108337
0.000945658
0.00149256
0.00144557
0.00069803
0.000969349
0.00102345
0.00150426
0.00120006
0.00105725
0.00119719
0.00111528
0.00147116
0.00121488
0.000807241
0.00115554
0.0010917
0.00106349
0.000783755
0.0010514
0.00115298
0.00129512
0.00143793
0.00143857
0.001136
0.00130543
0.00133991
0.00110275
0.000840323
0.000888839
0.00138237
0.000890767
0.00125259
0.00112865
0.00101371
0.00145648
0.00126214
0.0019654
0.000887802
0.00188701
0.000732229
0.00129063
0.00110343
0.00127974
0.00143213
0.00108517
0.00102506
0.000649108
0.000980056
0.000961193
0.000918142
0.00126552
0.00117492
0.00122115
0.00114535
0.00173447
0.0013406
0.00127774
0.00148182
0.0018213
0.00133035
0.00152231
0.000938859
0.00107474
0.00119224
0.000941039
0.000968369
0.00119147
0.000985116
0.00154245
0.00091389
0.00109579
0.0012237
0.00158585
0.00113214
0.00070426
0.00135288
0.0011287
0.00108438
0.00200635
0.00131323
0.000993416
0.00220447
0.00140235
0.00171577
0.00119624
0.00104167
0.00134916
0.00134741
0.000707957
0.0015264
0.0014675
0.000961202
0.00165167
0.00106253
0.00140033
0.00134785
0.0013106
0.0014587
0.000870696
0.00194691
0.000992261
0.00128491
0.00109632
0.000999089
0.00152668
0.000904675
0.00165186
0.00106651
0.00177504
0.000884915
0.00153595
0.000926505
0.00121305
0.000938069
0.00154536
0.00122787
0.00116882
0.00130729
0.00148259
0.00136753
0.00192573
0.00108454
0.000989733
0.00152189
0.00152221
0.00167044
0.00136906
0.00104793
0.000997036
0.0013633
0.00352878
0.00115988
0.000983618
0.00114769
0.00124756
0.00167711
0.000953539
0.00103078
0.00144896
0.00151573
0.00134947
0.00108156
0.00137268
0.00154717
0.00189198
0.00102417
0.00164825
0.0013202
0.00146717
0.00135582
0.000868864
0.000909341
0.000966127
0.000797912
0.00154337
0.0012887
0.00153722
0.00105839
0.00126977
0.00122091
0.00160819
0.00187581
0.000999147
0.0011005
0.00143551
0.00130892
0.00136876
0.00102025
0.00143746
0.000913776
0.00105196
0.00130332
0.00122036
0.00151482
0.000917854
0.0011898
0.00117699
0.00205509
0.000911589
0.00107741
0.0013748
0.00190955
0.00112122
0.00119419
0.000895658
0.00094655
0.00113059
0.0014817
0.00174113
0.0020199
0.00143009
0.00194172
0.00108539
0.000878352
0.000939358
0.00110165
0.00131948
0.00148774
0.00117954
0.00109732
0.000807672
0.00170963
0.000919446
0.00125544
0.000750107
0.000862201
0.00135769
0.00133473
0.00116834
0.00139263
0.00163316
0.00101197
0.00131145
0.00182748
0.00118509
0.00146541
0.00144295
0.000891374
0.00129476
0.00114692
0.00149532
0.0014979
0.000923982
0.00227631
0.0013371
0.00110072
0.00112429
0.000906237
0.00129009
0.00101919
0.00190632
0.00217875
0.00103184
0.00160558
0.000971077
0.0016143
0.00114551
0.00101181
0.00107922
0.00132307
0.000847731
0.00130628
0.00119252
0.00121465
0.00133366
0.00089342
0.00196114
0.00197429
0.00131856
0.00128644
0.00130934
0.00125904
0.00149332
0.00106596
0.000858837
0.00164964
0.00118555
0.00132125
0.00160499
0.00135084
0.000648193
0.000826565
0.00125206
0.00108666
0.00133498
0.00114066
0.00208015
0.00179489
0.0011252
0.000806295
0.00138406
0.0014883
0.00173907
0.00118307
0.00125836
0.00134818
0.00111777
0.00106677
0.000919676
0.00144889
0.00105371
0.00145144
0.00134815
0.00187568
0.00120595
0.00141089
0.00153328
0.00144783
0.00156854
0.00129922
0.00111524
0.00168268
0.00134269
0.00151458
0.00135728
0.0016135
0.0014228
0.00127037
0.00151394
0.00136248
0.00127023
0.000767494
0.00150225
0.00112944
0.00110076
0.00154539
0.00113404
0.00116397
0.00127846
0.00119538
0.00143256
0.00162953
0.001125
0.001299
0.00111059
0.00110751
0.00129087
0.00175129
0.000897358
0.00118056
0.00118704
0.00128322
0.00116012
0.00109698
0.00142104
0.00150345
0.00108224
0.000945985
0.00166467
0.00171151
0.0022257
0.00155698
0.000926387
0.00109039
0.000881967
0.00145566
0.00108338
0.00130288
0.000814616
0.00120886
0.000829492
0.00147744
0.000658429
0.00161758
0.000953113
0.00190142
0.0014126
0.00166515
0.00130478
0.00100649
0.00150062
0.00089185
0.00090094
0.00129943
0.00138869
0.00104818
0.00114936
0.000839954
0.00136321
0.00149272
0.00142452
0.00136139
0.00112293
0.00123691
0.00132006
0.000954688
0.000976432
0.000938778
0.00112598
0.00118972
0.000855597
0.00110966
0.0012851
0.00165131
0.00145664
0.000963943
0.00157886
0.000719888
0.0013788
0.00112121
0.00117187
0.00071656
0.00134621
0.00134174
0.00134108
0.00121562
0.00157814
0.00128649
0.00209407
0.00172724
0.000868726
0.00109681
0.00101738
0.0012532
0.00121311
0.00109681
0.00193836
0.000981281
0.000825909
0.000997128
0.00133701
0.00102718
0.0009914
0.00119435
0.00180152
0.00209817
0.00140328
0.00105691
0.00133666
0.00123036
0.000782438
0.0013009
0.00127336
0.00121569
0.000903116
0.00141353
0.00127045
0.00114134
0.00114428
0.00096452
0.00141584
0.00116697
0.00111456
0.000932571
0.000966073
0.00082887
0.00108671
0.000875133
0.000891149
0.000974388
0.00132558
0.00113461
0.00127521
0.00190676
0.00106931
0.0013134
0.0011682
0.0014461
0.0010157
0.000898954
0.00162223
0.000952342
0.00138262
0.00144742
0.0011377
0.00132718
0.00150408
0.000968441
0.00140998
0.0016574
0.0019394
0.000939403
0.000717071
0.00180685
0.00135167
0.00132214
0.00148202
0.00151707
0.00143429
0.00107468
0.000754548
0.00140255
0.000951717
0.00145251
0.000977868
0.00146467
0.00117169
0.000823861
0.00117107
0.00136542
0.000757639
0.00125146
0.00125446
0.00104928
0.00157491
0.00143345
0.0012362
0.00114188
0.0018754
0.00180856
0.00174863
0.00104199
0.00133978
0.00108428
0.00194702
0.00079546
0.000980985
0.00100684
0.000885179
0.00106112
0.00133148
0.000694716
0.00138223
0.0013015
0.000949679
0.00114615
0.00111753
0.00126747
0.00179806
0.00142305
0.000729189
0.000939372
0.000858058
0.0010813
0.000903713
0.00113005
0.000715404
0.00120968
0.000846852
0.00157722
0.00132666
0.0010758
0.000785409
0.000929687
0.00105826
0.000944465
0.000998527
0.00147393
0.00120039
0.00127356
0.00150729
0.00121118
0.000997937
0.00129248
0.00150599
0.00095986
0.00111323
0.00123375
0.00125519
0.00144933
0.00105208
0.000833518
0.00131886
0.000874567
0.000958852
0.00134832
0.00122957
0.00122227
0.00117753
0.00100451
0.00123121
0.000868472
0.00102479
0.000973804
0.00103123
0.00106399
0.00110162
0.000698177
0.00213775
0.000979706
0.000681113
0.00089224
0.000586692
0.001155
0.00134962
0.000772083
0.00147471
0.00111437
0.00100358
0.0013104
0.00136807
0.000898922
0.00139487
0.00134889
0.00118856
0.000625453
0.00138998
0.0012027
0.00105733
0.00095852
0.00116941
0.0012326
0.00211489
0.000929819
0.00178265
0.00127716
0.001351
0.0015386
0.00105219
0.00138185
0.00164931
0.00157087
0.00169083
0.00151089
0.00143762
0.00187964
0.00116551
0.00121456
0.00115386
0.00109631
0.00130478
0.00108398
0.00124147
0.00109625
0.000847781
0.000963683
0.00117598
0.00120785
0.0010071
0.000824184
0.00162911
0.00117852
0.0012876
0.0012908
0.00157231
0.00118136
0.00110283
0.0011636
0.00168018
0.00123135
0.00136145
0.00133373
0.00162246
0.00108694
0.00191563
0.0012789
0.00116552
0.00159455
0.00127362
0.00100398
0.000412549
0.00121796
0.00135666
0.00109809
0.000800216
0.00125936
0.00141695
0.00172402
0.00132239
0.0015202
0.00128777
0.00142153
0.00127563
0.000836242
0.000932507
0.000926435
0.00123697
0.000939557
0.00129243
0.00145007
0.00118235
0.0019362
0.000844275
0.00119782
0.00127156
0.00114045
0.00113446
0.00129765
0.00144347
0.00126926
0.00127887
0.00126986
0.00114486
0.00131471
0.0013185
0.00138489
0.00137286
0.00142784
0.00085153
0.00160942
0.00149773
0.000723607
0.00125431
0.000919943
0.00134953
0.000966262
0.0012355
0.00154987
0.00132401
0.000944093
0.000696985
0.00127421
0.00142009
0.0012111
0.0018737
0.00140413
0.00144184
0.00125514
0.001269
0.000626131
0.000987014
0.00175241
0.00153413
0.00140507
0.00136931
0.00113543
0.00102158
0.00137097
0.00166558
0.00110868
0.00135731
0.000936674
0.00153403
0.00255071
0.00127528
0.00107116
0.000998957
0.00161883
0.00176538
0.00138804
0.00076274
0.00162987
0.00140429
0.00132294
0.00187933
0.00188854
0.00169593
0.00133159
0.00104747
0.00116166
0.00119907
0.0016388
0.00132598
0.00120142
0.000887308
0.00092105
0.001287
0.00130838
0.00101321
0.00135038
0.00149349
0.00152241
0.00140179
0.00141999
0.00104989
0.00143085
0.000786225
0.00141556
0.00144207
0.000876054
0.00117188
0.00152143
0.000866958
0.00166184
0.00124391
0.00124836
0.00100768
0.00119687
0.00144327
0.00141322
0.000624567
0.00126326
0.000984535
0.00125793
0.00118372
0.00122073
0.00121116
0.00100987
0.00107461
0.000907935
0.00113877
0.00101832
0.000670886
0.00118227
0.00148877
0.00134055
0.00101312
0.00119254
0.00131237
0.00219154
0.000978416
0.000963583
0.00106869
0.00121198
0.000858719
0.000983882
0.000955271
0.000964425
0.000772987
0.000907544
0.00117173
0.0015233
0.00145752
0.000775017
0.000898461
0.000807671
0.00100195
0.00121465
0.00108792
0.00130796
0.00148919
0.0019548
0.00142993
0.00154879
0.00100485
0.00135629
0.00105574
0.00109138
0.00125085
0.00093764
0.00101495
0.00127909
0.00151716
0.00115116
0.000973876
0.000955892
0.000960228
0.00122329
0.00112846
0.00153613
0.00168701
0.0013266
0.00109533
0.00183606
0.0011707
0.00101452
0.00183216
0.0012454
0.00119256
0.00118625
0.00119716
0.00148286
0.00148596
0.00126387
0.000909868
0.00133171
0.00132724
0.00101539
0.00090574
0.000851011
0.000854411
0.00156234
0.00178867
0.00114357
0.0014531
0.0011572
0.00119393
0.000906594
0.00138566
0.00124227
0.00135631
0.00130736
0.00136113
0.000908275
0.00142953
0.00119127
0.0019725
0.00109033
0.00147408
0.000765928
0.00141103
0.000726926
0.00122595
0.00158918
0.00134099
0.00121593
0.000813246
0.00167088
0.000833105
0.00103706
0.000880136
0.000836398
0.00114568
0.000523983
0.00109367
0.00175474
0.00141135
0.00127119
0.000985085
0.00155825
0.00146978
0.00116943
0.00146789
0.000807987
0.00126862
0.001243
0.00131366
0.00123782
0.00149136
0.00106067
0.00122477
0.00108025
0.000753193
0.00181145
0.00128816
0.0014453
0.000983027
0.00139049
0.00121716
0.00127499
0.00111802
0.00150518
0.00156057
0.00128279
0.00135806
0.000916424
0.00144466
0.00107894
0.00134114
0.000850609
0.00175565
0.00100259
0.00121804
0.00169658
0.0018132
0.00131188
0.0012486
0.00172443
0.00168122
0.00092843
0.00113034
0.000911592
0.000988245
0.000877866
0.00153085
0.00124429
0.000970917
0.000927586
0.00152535
0.00116193
0.000848363
0.00152371
0.00139751
0.00105538
0.00107987
0.00112438
0.00082751
0.00130856
0.00155996
0.00139279
0.00182675
0.00114732
0.00101729
0.00121639
0.00107855
0.00110055
0.00165203
0.00117444
0.00111581
0.0011812
0.000876066
0.00147615
0.00133326
0.00104491
0.000986183
0.00179411
0.000746378
0.000930289
0.00172379
0.00124592
0.000876281
0.00125681
0.000968934
0.00109473
0.00107256
0.000897174
0.000814863
0.0010736
0.000976224
0.00102758
0.00132965
0.00103649
0.00167203
0.0009008
0.00163635
0.00104794
0.00120305
0.00143678
0.000904749
0.000905798
0.000711451
0.00107937
0.00106511