/*--------------------------------*- C++ -*----------------------------------*\
| =========                 |                                                 |
| \\      /  F ield         | OpenFOAM: The Open Source CFD Toolbox           |
|  \\    /   O peration     | Version:  2212                                  |
|   \\  /    A nd           | Website:  www.openfoam.com                      |
|    \\/     M anipulation  |                                                 |
\*---------------------------------------------------------------------------*/
FoamFile
{
    version     2.0;
    format      ascii;
    arch        "LSB;label=32;scalar=64";
    class       volScalarField;
    location    "10";
    object      p;
}
// * * * * * * * * * * * * * * * * * * * * * * * * * * * * * * * * * * * * * //

dimensions      [0 2 -2 0 0 0 0];

internalField   nonuniform List<scalar> 
308140
(
-1052.53
-393.576
-841.496
-769.013
-1127.47
-837.536
-1090.31
-335.68
-991.051
-585.95
-972.288
-483.174
-120.282
-483.482
-980.418
-959.472
-817.279
-992.297
-841.577
-465.538
-919.27
-548.002
-771.973
-908.782
-242.35
-977.836
-108.751
-904.561
-931.593
-1008.42
-690.477
-1067.48
-350.82
-109.88
-956.353
-88.5617
-355.709
-1068.74
-686.526
-549.945
-952.466
-1155.79
-775.127
-543.759
-833.203
-697.329
-580.119
-861.807
-343.402
-700.292
-821.621
-920.595
-793.137
-932.777
-797.211
-709.475
-681.138
-959.216
-128.875
-550.422
-604.468
-1141.12
-975.825
-721.371
-389.413
-938.955
-1161.71
-1159.57
-885.76
-862.742
-72.03
-818.837
-969.164
-62.2303
-821.672
-820.525
-899.416
-826.665
-900.879
-616.472
-4.72859
-809.975
-127.194
-884.041
-912.331
-938.137
-950.189
-1114.2
-1006.33
-966.249
-598.628
-39.6742
-1022.99
-1041.09
-834.517
-854.858
-52.9887
-59.4578
-443.956
-803.342
-812.361
-839.962
-60.4637
-1017.61
-591.334
-965.92
-1026.96
-990.616
-405.885
-540.408
-542.151
-823.528
-818.711
-1027.7
-851.746
-468.311
-1040.81
-373.303
-837.776
-79.4476
-1066.44
-132.911
-705.447
-352.572
-957.404
-856.103
-864.136
-998.128
-834.79
-802.225
-836.674
-1026.11
-1041.91
-640.858
-911.512
-958.561
-707.574
-421.347
-436.45
-1075.73
-931.528
-1127.96
-210.51
-774.065
-609.114
-511.432
-539.041
-763.409
-754.509
-795.158
-805.542
-872.442
-6.50943
-34.6013
-855.649
-650.926
-796.369
-679.635
-5.91691
-49.5013
-257.114
-1010.57
-996.858
-830.146
-801.502
-866.515
-258.345
-213.908
-55.385
-904.172
-970.132
-1001.37
-840.481
-1096.06
-1072.14
-877.636
-1039.63
-478.696
-472.147
-1000.71
-726.911
-198.361
-933.757
-1039.36
-988.111
-995.338
-957.686
-949.696
-767.414
-970.914
-1019.12
-714.224
-900.869
-787.95
11.3541
-665.455
-740.124
-816.372
-736.236
-727.646
-681.621
-277.221
-763.673
-566.312
-922.682
-1055.02
-1057.39
-849.933
-722.139
-517.269
-535.845
-537.205
-897.837
-992.995
-871.928
-1052.54
-450.513
-997.845
-988.129
-1062.51
-992.981
-937.941
-792.341
-796.294
-975.881
-1000.97
-672.579
-1031.59
-1004.01
-795.733
-848.747
-16.7477
-884.111
-788.387
-756.194
-648.455
-861.036
-907.816
-980.511
-1027.1
-1028.92
-466.854
-497.761
-528.978
-705.668
-349.985
-1032.81
-1037.32
-645.843
-959.214
-275.361
-855.294
-926.729
-783.843
-818.618
-732.493
-755.313
-753.138
-523.11
-726.263
-746.297
-888.6
-961.6
-966.295
-838.14
-862.977
-779.127
-1028.4
-1046.48
-891.093
-150.529
-826.77
-558.751
-726.986
-577.377
-835.96
-812.835
-902.047
-1029.62
-762.203
-837.712
-474.954
-265.33
-7.2774
-993.138
-1063.86
-395.4
-825.954
-875.966
-977.832
-1031.19
-877.636
-1028.76
-883.063
-973.346
-977.119
-873.874
-754.942
-44.5759
-835.785
-676.424
-800.116
-817.753
-1153.54
-127.755
-823.359
-1010.34
-971.467
-947.931
-979.849
-836.728
-1146.58
-1033.49
-864.956
-798.245
-830.187
-1004.06
-892.282
-1037.65
-1042.46
-737.571
-296.302
-1028.3
-934.292
-913.952
-458.506
-1044.95
-870.819
-935.926
-917.08
-869.703
-861.798
33.0975
-519.666
-1026.19
-73.5186
-71.7161
-1013.38
-811.988
-274.98
-794.906
-520.221
-989.496
-302.872
4.72395
-924.035
-811.293
-357.614
-288.166
-888.48
-906.201
-27.4725
-1014.2
-1155.18
-309.759
-896.91
-368.126
-106.196
-354.662
-975.095
-807.073
-806.584
-864.656
-956.882
-773.341
-525.366
-529.23
-921.278
-880.603
-56.6402
-319.184
-14.2046
-1050.75
-919.366
-761.077
-887.27
-100.707
-95.7887
-1014.37
-236.798
-600.341
-962.546
3.56339
-877.851
-879.908
-157.013
-880.861
-678.381
-886.056
-391.573
-390.39
-802.817
-487.252
-1062.79
-904.838
-158.42
-176.248
-912.034
-1025.14
-720.582
22.7799
-343.072
-501.046
-503.853
-302.47
-826.98
-130.206
-956.996
-889.565
-984.378
-841.706
-1056.69
-1046.79
-808.194
-11.109
-679.406
-826.248
-1071.77
-1070.41
-889.394
-882.338
-580.483
-883.336
-834.172
-402.028
-772.401
-744.25
-1017.14
-1105.12
-854.431
-94.2506
-360.94
-878.076
-786.977
-1121.14
-811.477
-879.403
-871.563
-169.49
-1019.17
-494.567
-759.765
-868.686
-1012.16
-413.398
-862.45
-800.252
-769.5
-985.141
-954.366
-648.752
-824.291
-724.917
-748.922
-478.802
-458.308
-871.11
-18.9996
-824.382
-1025.04
-955.246
-570.256
-19.1399
-744.619
-746.33
-593.653
-802.024
-762.493
-929.79
-565.466
-754.393
-983.614
-1012.46
-871.475
46.8154
-889.949
-1012.53
-992.277
-243.834
-241.314
-233.776
-817.314
-370.964
-879.82
-855.575
-125.667
-819.29
-836.737
-938.96
-89.4318
-971.594
-573.653
-552.533
-558.953
-200.957
-814.04
-999.153
-311.177
15.6034
-989.287
-579.909
-628.684
-64.9149
-911.491
-29.2436
-1039.21
-789.595
-1069.66
-872.924
-964.498
-785.535
-866.177
-825.648
-727.294
-817.886
-934.615
-619.255
-90.9084
-858.649
-852.724
-939.718
-1014.23
-276.41
-781.541
-895.655
-946.29
-896.5
-760.596
-755.592
-808.527
-1063.69
-988.526
-1019.24
-258.189
-232.898
-220.113
-816.706
-864.473
-845.223
-877.234
-933.184
-1022.57
-1019.92
-1001.06
-862.261
-5.8889
-1061.7
-1113.8
-807.445
-807.523
-1014.41
-1009.14
-994.656
1.00424
-823.782
-1116.58
-274.919
-896.049
-858.127
-18.6126
-380.088
-2.62195
-163.301
-256.769
-631.233
-11.5951
-27.6249
-886.231
-866.569
-948.58
-973.202
-423.015
-374.801
-1047.49
-837.677
-478.203
-819.633
-352.239
-908.431
-877.526
3.17484
-510.335
-543.108
-752.509
-1141.31
-796.139
-811.424
-551.694
-710.16
-958.44
-1011.39
-1051.21
-1052.59
-383.614
-658.55
-891.386
-880.384
-856.283
-65.4712
-836.864
-443.244
-778.29
-268.118
-768.821
-1014.2
-83.4279
-753.544
-758.256
-872.239
-975.327
-191.535
-862.011
-784.432
-976.724
-907.663
-572.06
-824.058
-851.62
-857.788
-1000.59
-30.9052
-19.5411
-1007.9
-1005.54
-801.83
-523
-828.324
-17.1859
-580.272
-944.77
-1101.74
-975.397
-1059.53
-1056.56
-739.198
-999.183
-991.498
-1047.98
3.83884
-210.592
-912.421
-748.528
-921.787
-966.127
-973.179
-796.871
-851.582
-837.063
-968.737
-947.152
-830.055
-360.603
-1016.59
-1046.26
-927.485
-787.287
-533.113
-466.242
-757.103
-900.045
-810.93
-812.161
-1041.56
-986.325
-969.727
-763.98
-846.027
-874.345
-726.397
-1064.98
-763.122
-1010.84
-848.214
-413.354
-520.678
-513.177
-1004.65
-89.0883
-288.302
-440.501
-783.923
-832.693
-819.607
-852.218
-241.442
-814.522
-659.768
-577.279
-523.712
-800.925
-5.00566
-6.21787
-992.462
-485.31
-1062.26
-667.313
-812.572
-758.689
-595.737
-870.669
-917.347
-536.205
0.782094
6.54183
-697.823
-1118.74
-1105.11
-975.749
-946.087
-713.527
-547.333
-726.579
40.4868
-318.699
-143.371
-134.829
-523.466
-798.807
-1043.01
-884.699
-922.082
-905.99
-1065.54
-395.982
-618.986
-1072.65
-350.429
-1000.39
-836.838
-1000.83
-760.561
-454.186
-789.565
-808.234
-1092.5
-1152.12
-20.5444
-986.97
-670.409
-835.448
-1045.36
-930.035
-914.641
-993.229
-582.822
-853.021
-842.484
-839.027
-831.553
-971.613
-17.9614
-917.103
-1058.67
-832.064
-744.441
-1063.65
-832.094
-972.263
-907.344
-926.107
-809.484
-750.665
-735.438
-1050.6
-456.124
-752.934
-920.788
-19.4106
-238.517
-871.592
-754.238
-717.282
-897.785
-704.872
-849.235
-865.864
-759.583
-1148.51
-1148.2
-814.217
-115.102
-1024.29
-1072.77
-766.376
-761.63
-717.732
-774.28
-745.442
-101.798
-813.095
-867.542
-1072.35
-741.994
-729.009
-830.57
-814.4
-93.9465
-137.387
-822.817
-592.3
-776.998
-505.461
-789.182
-799.188
-846.337
-874.476
-1152.97
-792.558
-794.568
-59.5615
-1156.43
-480.94
-720.044
-23.6663
21.5735
-1016.82
-861.305
-961.238
-574.453
-901.346
-923.264
-873.576
-804.533
-859.464
-928.656
-244.084
-628.667
-497.791
-992.787
-1003.99
-990.759
-900.186
-417.511
-425.28
-984.186
-954.924
-77.8091
-94.9529
-61.5365
-106.568
-957.609
-1124.26
-1036.88
-921.194
-971.237
-868.76
-1045.11
-831.304
-923.193
-1057.6
-426.204
-78.2849
-602.622
-451.804
-924.164
-951.696
-1014.09
-794.905
-828.68
-833.682
-892.248
-998.046
-1038.55
-784.057
-243.963
-1079.55
-860.909
-828.216
-820.75
-881.159
-853.769
-796.849
-788.372
-853.897
-870.045
-939.907
-988.988
-1005.47
-123.28
-956.92
-964.504
-987.712
-900.926
-786.477
-975.558
-728.7
-665.983
-220.042
-1071.69
-969.065
-815.643
-768.295
-608.453
-1054.8
-944.637
-658.067
-968.079
-964.785
-895.809
-899.61
-1026.69
-640.604
-948.787
-71.717
-722.24
-944.219
-951.096
-822.646
-861
0.0109048
-40.0623
-762.549
-1027.1
-973.148
-992.216
-813.869
-826.17
-707.171
-684.793
-1071.79
-1058.18
-1066.37
-985.58
-1052.86
-644.959
-1058.13
-890.627
-628.399
-999.191
-854.412
-740.049
-481.725
-783.87
-897.648
-806.934
-1060.9
-830.756
-501.902
-876.615
-963.296
-457.982
-969.439
-876.234
-1043.53
-829.894
-816.311
-901.975
-999.233
-728.952
-228.221
-713.809
-879.938
-934.52
-821.345
-798.731
-797.329
-691.787
-515.9
-952.157
-976.432
-243.066
-868.83
-711.933
-606.307
-366.336
-1092.32
-1074.24
-980.938
-895.815
-897.427
-836.695
-716.772
-792.144
-793.198
-300.403
-318.837
-620.574
-695.39
-819.616
-817.627
-1014.14
23.1361
-838.302
-972.308
10.3637
-797.682
-427.485
-753.318
-944.322
-932.524
-949.636
-971.167
-897.611
-908.596
-945.94
-966.363
-856.651
-524.627
-593.98
-1071.34
-824.76
-922.216
-628.695
-92.5509
-452.221
-182.699
-1009.71
-1111.65
-799.679
-866.776
-828.582
-877.448
-877.487
-380.327
-885.47
-831.82
-226.389
-912.458
-591.561
-1061.6
-999.293
-784.999
-346.762
-582.661
-924.845
-924.426
-512.392
-540.671
-860.952
13.6527
-599.781
-822.051
-722.07
-958.549
-355.493
-5.81831
-624.954
-882.779
-88.8297
-1026.9
-877.795
-774.184
-846.78
-790.185
-37.4549
-75.3241
-892.149
-1019.3
-1018.07
-614.885
-245.033
-1075.11
-168.564
-716.543
16.3103
-1139.68
-864.177
-870.472
-843.946
-833.62
-766.163
6.77759
-1006.41
-926.867
-773.35
-831.483
-868.05
-659.626
-816.389
-805.889
-830.484
-820.306
-804.328
-826.11
-992.25
-74.3747
-26.7638
-76.684
-956.749
-587.591
-613.82
-584.325
-707.212
17.9661
-514.077
-487.854
-896.295
-828.601
-821.52
-961.272
-858.174
-876.857
-753.482
-934.058
-951.025
-952.938
-166.249
-1084.35
-1056.59
-1081.72
-839.926
-1098.49
-1064.25
-1076.46
-406.95
-884.676
-1019.03
-11.2863
-408.455
1.92346
-1018.25
-797.219
-836.955
-427.217
-1008.91
-972.796
-966.807
-780.846
-889.971
-766.553
-767.069
-101.384
-90.6371
-848.127
-809.923
-1080.34
-677.735
-687.47
-456.415
-861.015
-535.858
-865.067
-112.993
-1058.68
-1032.94
-778.207
-443.941
-862.21
-93.0298
-804.527
-798.663
-758.334
-832.042
-921.003
-585.028
-30.8585
-1033.15
-515.165
-461.594
-820.214
-34.8525
-93.7034
-1138.78
-980.379
-859.828
-219.859
16.362
-914.565
-865.16
-853.709
-984.812
-720.948
-555.98
-450.247
-883.073
-869.176
-150.34
-925.455
-532.669
-1104.88
-1102.49
-1101.89
-933.431
-808.517
-121.977
-183.471
-738.367
-1091.62
-797.263
-851.325
-422.479
-894.047
-343.139
-1029.31
-976.827
-376.11
-832.886
-26.5251
-886.5
-862.997
-876.366
-606.722
-743.995
-770.066
-885.591
-802.787
-801.331
-5.55405
-1042.25
-806.375
-946.361
-1071.21
-1135.67
-779.584
-847.453
-526.791
-1010.07
-973.818
-916.469
-875.133
-810.965
-754.078
-993.236
-880.77
-888.807
-948.857
-22.6754
-692.023
-861.818
-458.84
-785.664
-899.676
-1120.87
-1106.98
-1003.81
-591.814
-1082.84
-790.198
-804.707
-801.044
-793.967
-811.383
-823.059
-775.178
4.70024
-746.086
-739.476
-550.242
-561.989
-908.526
-104.064
-808.615
-815.114
-799.256
-1011.13
-718.688
-815.375
-266.266
-471.909
-890.362
-868.212
-867.892
-1013.56
-813.111
-261.102
-892.149
-598.358
-822.705
-11.3761
-117.927
-1115.3
-824.833
-1079.32
-1072.23
-1051.17
-1028.18
-1052.5
-835.212
-692.108
-505.587
-773.947
-628.83
-799.864
-1135.64
-1070.91
-997.472
-854.014
-865.505
-857.732
-837.692
-688.306
16.0507
-418.643
-472.508
-1020.38
-678.004
-839.38
-895.861
-765.402
-867.403
-869.73
-1021
-1018.3
-10.7825
-985.139
-562.092
-471.026
-874.267
-888.048
-314.481
-415.846
-426.879
-560.851
-16.332
-548.595
-576.908
-801.904
-622.25
-458.291
-900.344
-421.795
-876.165
-754.698
-718.967
-686.916
-591.642
-1087.07
-831.449
-387.68
-894.02
-113.907
-5.37559
-846.245
-789.721
-772.376
10.451
16.642
-518.918
-737.176
-902.287
-870.721
-68.1023
-65.7829
-882.386
-71.5166
-763.789
-829.293
-93.0436
-825.134
-785.032
-884.243
-1055.3
-15.1033
-78.0916
-1016.69
-584.406
-873.994
-960.835
-380.718
-776.965
-1029.08
-878.391
-833.476
-616.011
-957.397
-153.795
-744.338
-1083.69
-903.103
-1025.65
-1016.75
-778.797
-748.988
-1014.51
-238.121
-1036.91
-748.264
-810.868
-446.321
-495.979
-861.998
-15.8953
-945.843
-441.107
-1120.4
-402.219
-861.608
-1069.69
-1059.06
-961.176
-401.409
-751.198
-857.319
-268.684
-725.926
-1038.44
-1051.84
-255.487
-701.971
-684.153
-693.297
-688.645
-870.747
-777.924
-655.586
-977.934
-347.639
-1012.44
-269.339
-823.66
-520.204
-593.606
-1046.05
-689.019
-868.221
-987.432
-893.69
-85.3012
-788.723
-764.682
32.9303
-292.483
-1.01789
-854.282
-516.907
-524.121
-788.542
-1036.88
-832.57
-943.811
-251.202
-1053.65
-1074.92
-1082.42
-840.414
-928.754
-883.787
-772.632
-824.399
-817.211
-855.873
-340.129
-586.571
-898.103
-22.0334
-752.82
4.32051
-0.238043
-1045.01
-822.292
-318.696
-760.966
-867.222
-465.512
-898.869
-731.898
-1080.33
-1076.82
-862.246
-62.0834
-1025.34
-702.306
-248.652
-239.107
-116.058
-744.47
-804.268
-479.44
-955.627
-1162.58
-1094.64
-1094.66
-825.877
-835.276
-903.315
-52.1199
8.11605
-1163.31
-1040.14
-825.379
-840.141
-784.009
-1087.46
9.23515
16.5375
-775.959
-203.199
-540.559
-963.851
-686.045
-1032.36
-475.424
-29.002
-995.805
-1001.26
-805.34
-317.419
-810.113
-805.696
-797.259
-921.607
-665.314
-527.57
-795.316
-534.092
-519.731
-668.665
-790.282
-893.488
-852.218
-131.042
-827.119
-733.149
-972.576
1.35455
-874.006
-979.218
-351.075
-995.722
-1007.53
-1069.66
-462.061
-835.514
-863.488
-917.97
-114.558
-130.904
-591.547
-904.532
-969.434
-670.162
-987.157
18.1817
-1027.51
-498.147
-506.013
-666.244
-555.212
-611.003
-1064.03
-398.67
-32.5666
-675.2
-882.144
5.99727
-1051.82
-49.667
-1056.08
-962.878
-333.483
-714.032
-822.163
-864.083
-65.7662
-1021.48
-748.533
-767.77
-843.203
-1035.53
-2.8136
-1001.65
-1092.12
-849.423
-59.7183
-777.492
-148.06
-152.148
-502.681
-496.267
-667.432
-588.655
-896.221
-9.68506
-734.843
-904.72
-936.737
-819.429
-1059.97
-905.657
-605.755
3.58541
-824.263
-713.002
-458.551
-616.196
-836.718
-662.167
-817.046
-716.846
-869.058
-716.9
-540.979
-108.576
-1093.56
-745.47
-1033.45
-49.2518
-1018.85
-979.247
-1014.19
-544.731
-583.458
-495.5
-847.491
-437.413
-862.23
-891.058
-859.412
-799.334
-801.485
-898.377
-126.73
-102.52
-791.605
-1096.18
-894.229
-735.108
-903.324
-752.714
-724.665
-816.67
-1089.87
-878.368
-1055.01
-862.37
-822.341
12.1649
-543.188
-833.878
-849.043
-652.66
-775.916
-443.723
-304.034
-706.691
-714.119
-658.304
-1078.21
-911.419
-721.179
-1075.62
-793.37
-54.841
-30.3833
4.85321
-749.952
-887.547
-892.118
-833.283
-1023.5
-834.636
-848.843
-469.136
-871.013
-329.116
-837.89
-333.669
-905.111
-961.252
-823.03
13.9817
-810.365
-939.846
-483.736
-1030.32
-122.782
-592.166
-942.913
-1070.88
-12.311
-1141.96
-753.016
-913.493
-888.15
-858.064
-857.108
-824.898
-991.15
-770.72
-896.181
-822.152
-714.36
-1076.46
-222.07
-739.694
-1107.88
-1021.37
-226.055
25.6588
-844.831
-409.045
-799.066
-330.754
-730.895
-758.438
-609.461
-943.969
-243.852
-1030.32
-791.297
-936.411
-843.644
-745.727
33.4295
-593.245
-570.012
-849.285
-834.779
-1114.47
-815.305
-812.72
-801.33
-924.677
-545.426
-763.112
-802.179
-776.323
-745.592
-915.226
-971.176
-924.027
-913.745
-699.244
-764.36
-49.7051
-65.0657
-889.75
-42.9546
-997.894
-1101.3
-1027.02
-859.332
-866.904
-827.47
-865.102
-828.49
-839.535
-981.291
-957.946
-986.534
-191.848
-954.188
-650.459
-865.314
-916.531
-860.366
-792.343
-782.929
-416.85
-504.039
-442.547
-85.5316
-533.777
-870.983
-647.204
-893.18
-841.262
-644.719
-1102.2
-937.029
-244.891
-833.581
-1013.67
-890.871
-779.426
-91.3941
-816.401
-454.19
-237.47
-111.1
-1070.1
-1.82415
-352.733
-55.1041
-924.682
-1136.27
-838.97
-676.069
-827.301
-831.764
-676.593
-394.445
-896.373
-912.021
-810.984
-891.31
-956.866
-749.81
-82.9014
-754.601
-949.735
-793.104
-798.557
-142.696
-358.936
-871.224
-34.4348
-426.472
-980.05
-673.979
-597.236
-206.213
-828.105
-887.888
-611.303
-1008.29
-919.983
-939.989
-771.534
-894.499
-104.786
-1059.67
-109.752
-269.021
-917.569
-939.154
-560.516
-235.149
-777.268
-837.596
-815.959
-1045.35
-1033.5
-142.694
-833.941
-1168.04
-856.672
-129.146
-681.361
-0.595756
-983.29
-853.109
-50.3965
-901.523
-818.153
-925.773
-877.258
-812.753
-1122.87
-790.178
-644.567
-908.119
-1024.8
-1034.17
-257.836
-208.178
-1133.08
-929.688
-934.539
-790.725
-98.8592
-716.253
-1018.34
-1020.32
-87.2339
-709.388
-685.742
-729.68
-484.484
-474.299
-908.825
-664.031
-41.6493
-275.99
-924.444
-632.409
-679.381
-843.807
-890.554
-804.103
-946.283
-35.4025
-1060.07
-959.024
-229.462
-788.266
-744.252
-74.8584
-840.934
-494.07
-891.953
-769.152
-21.2601
-1015.71
-773.543
-481.81
-878.363
-996.243
-756.359
-439.434
-741.985
-1006.1
-386.447
-306.12
-1104.94
-907.61
-855.497
-19.1202
-773.968
-635.323
-822.471
-850.228
-759.104
-863.567
-514.421
-937.653
-797.478
-801.441
-278.573
-557.386
-694.068
-824.228
-986.765
-869.014
-328.777
-212.215
-810.553
-921.628
-863.65
-888.084
-903.724
-836.595
-672.269
-589.551
-902.279
-631.28
-859.861
-882.589
-806.281
-129.796
-806.322
-821.751
-773.014
-572.598
-741.832
-752.263
-126.404
-146.059
-1066.68
-833.644
-196.67
-36.4793
-16.9278
-763.397
-1107.1
-872.523
-944.582
-937.369
-784.991
-436.927
-710.384
-941.005
-743.323
-976.69
-691.427
-558.955
-837.656
-822.818
-826.177
-641.837
-579.178
-886.555
-894.045
-1004.51
-17.7923
-571.873
-975.789
-806.453
-656.129
-709.189
-644.511
-668.092
-1038.67
22.46
-465.001
-833.721
-999.741
-35.4175
-1089.63
-967.715
-1059.68
-858.692
-1170.54
-894.356
-298.801
-826.891
-515.86
-899.11
-654.543
-1023.07
-980.643
-991.59
-1006.19
-861.261
-941.683
-803.751
-910.622
-425.169
-948.333
-996.806
-39.0999
-872.59
13.2114
-878.384
-303.211
-1028.8
-1016.93
-972.144
-680.678
-717.86
-865.393
13.3583
-3.17697
-807.203
-844.946
-43.8527
-848.864
-1155.87
-631.279
-831.852
-786.046
-1096.9
-508.854
-924.335
-1062.5
-1043.83
-467.046
-479.071
-775.072
-283.574
-553.533
-758.631
-795.337
-970.206
-706.464
-1066.52
-1023.14
-901.506
-1010.24
-981.994
-972.526
-520.329
-821.31
-763.429
-776.756
-644.811
-150.216
-903.441
-936.701
-864.079
-96.1243
-495.571
-752.307
-741.202
-735.931
-1051.56
-989.643
-810.689
-820.745
-906.94
-875.565
-444.413
-437.263
-821.011
-1009.83
-840.104
-720.9
-598.552
-863.331
-811.103
-826.325
-781.827
-499.88
-876.037
-1004.93
-1099.99
-856.033
-350.797
-1036.25
-806.021
-729.369
-833.196
-431.174
-976.949
-988.541
-19.9479
-63.9654
-14.3711
-1092.76
-94.1847
-803.954
-892.183
-315.133
-1049.55
-891.598
-1074.59
-358.332
-399.646
-840.979
-862.745
-841.392
-510.087
-964.803
-853.882
-592.148
-983.914
-927.99
-106.145
-860.862
-861.576
-863.477
-227.951
-517.024
-235.346
-786.967
-839.575
-960.3
-1007.08
-839.888
-734.354
-494.824
-848.969
-302.867
-948.387
-1049.08
-768.673
-723.742
-898.28
-974.109
-860.1
-304.382
-808.089
-853.512
-547.733
-890.103
-1047.32
-756.713
-781.262
-955.138
-941.763
-762.432
-366.387
-733.324
-223.57
-808.717
-79.8751
-120.657
-103.875
-1152.96
-883.251
19.689
-14.9553
-786.813
-1002.68
-1039.78
-713.317
-349.762
-895.712
-1053.4
-464.435
-273.102
-254.457
-804.615
-407.769
-1.45337
-714.601
-337.972
-853.622
-1035.32
-820.289
-824.636
-803.357
-920.554
-840.712
-483.964
-136.581
-891.676
-527.906
-51.3452
-776.743
-855.724
-782.548
-807.901
-717.234
-729.503
-15.1164
-789.732
-843.389
-329.114
-780.898
-1022.57
-572.933
-1010.1
-130.025
-144.399
-805.63
-981.633
-987.419
-913.74
-1110.14
-1047.08
-1070.18
-865.067
-851.57
-1030.84
-106.642
-101.448
-881.844
-825.089
-1116.69
-900.207
-27.301
-62.6303
-773.079
-778.876
-532.256
-911.937
-848.373
-1027.18
-1067.88
-1029.63
-70.7146
-973.608
-972.812
-784.906
-505.195
-880.814
-428.321
-367.3
-205.109
-1072.68
-1055.24
-741.709
-853.187
-961.764
-684.414
-971.264
-709.784
-401.276
-702.488
-942.243
-941.95
-967.532
-860.088
-879.519
-909.191
-874.111
-948.627
-609.329
-606.025
-1073.85
-455.824
-828.184
-1018.51
-182.571
-181.159
-831.304
-667.491
-111.518
-262.073
-410.075
-815.346
-789.345
-326.21
-912.729
-781.867
-250.825
-819.937
-1024.3
-227.104
-683.719
-1038.11
-1031.15
-1047.18
-467.832
-1099.46
-1077.54
-257.867
-340.71
-424.975
-375.621
-534.669
-624.373
-746.284
-608.978
-362.764
-637.585
-654.086
-836.845
-858.613
-790.639
-800.718
-896.721
-1155.68
-1156.11
-22.035
-822.752
-351.043
-322.46
-832.128
-842.906
-837.052
-1054.46
-277.127
-328.819
-767.432
-1098.97
-391.419
-809.852
-660.561
-1071.95
-500.508
-216.757
-767.515
-754.728
-780.864
-814.036
-790.113
-547.13
-985.423
-502.438
-1043.22
-764.05
33.5636
-743.328
-52.5352
-1129.34
-709.932
-615.856
-436.919
-404.053
-1078.74
-1072.33
-842.236
-709.692
-856.783
-667.936
-714.193
-766.833
-502.938
-81.2844
-1020.41
-913.015
-848.934
-758.115
-617.395
-789.528
-911.398
-336.76
-1081.16
-317.707
-856.529
-343.255
-800.656
-1005.31
-479.412
-79.7083
-790.554
-806.976
-1012.42
-1029.3
-533.808
-869.276
-977.83
-831.275
-821.547
-847.226
-853.933
-939.621
-978.104
-1017.81
-256.701
-832.339
-1043.07
-1068.68
-897.389
-638.392
-621.205
-1039.52
-1019.07
-833.512
-835.98
-776.83
-776.498
-1019.11
-859.251
5.03299
-895.576
-692.275
-512.628
-743.239
-651.673
-914.641
-1164.27
-750.322
-827.337
-628.113
-811.674
-936.433
-303.591
-857.131
-558.012
-568.307
-798.47
-991.935
-858.141
-908.239
-936.199
-1032.42
-44.8906
-1041.09
-249.433
-233.23
-1029.77
-875.368
-764.215
-588.771
-833.284
-830.36
-956.75
-768.625
-453.864
-797.925
-813.812
-175.936
-164.275
-62.9774
-204.036
-257.047
-757.17
-38.8188
-821.635
-858.915
-921.111
-394.195
-435.572
-423
-829.302
-754.29
-797.129
-588.093
-988.6
-894.864
-854.22
-448.215
-981.851
-840.418
-840.886
-864.459
-876.342
-855.631
-862.344
-532.014
-691.875
-1056.02
-1035.57
-82.9878
-25.0278
-1039.7
-815.085
-988.051
-938.355
-1073.57
-812.987
-871.695
-899.422
-941.048
-353.162
-852.575
-963.751
-416.761
-744.631
-848.813
-847.346
-724.175
-1000.32
-994.317
-940.518
-590.52
-586.845
-851.597
-1091.45
-876.245
-342.458
-685.776
-1050.02
-1041.5
-993.81
-915.82
-497.469
-507.521
-540.613
-946.481
-558.24
-872.292
-814.927
-903.844
-679.334
-1087.26
-920.78
-1033.19
1.07314
-850.312
-590.333
-697.929
-657.288
-839.154
-942.905
47.7784
-802.566
-811.995
-883.647
-733.004
-864.874
-816.181
-959.254
-655.907
-789.361
-97.2052
-729.319
-775.401
-385.688
-131.397
-559.194
-591.209
-774.752
-1081.07
-1074.49
-483.415
-806.497
-841.167
-807.8
-787.39
-829.584
-820.571
-856.049
-172.434
-707.435
-557.853
-1013.95
-1029.26
-635.277
-543.814
-606.723
-431
-823.332
-155.74
-864.798
-840.216
-668.124
-638.315
-265.094
-1093.04
-776.858
-1014.96
-849.19
-854.007
-944.929
-950.282
-1081.88
-804.054
-1157.8
-1008.42
-326.468
-397.253
-804.055
-871.272
-2.6876
-988.179
-853.179
-1087.57
-857.048
-1078.43
-600.621
-654.323
-666.174
-1078.39
-647.483
-825.593
-399.573
-906.441
-1092.07
-1090.53
-321.394
-1017.3
-801.852
-729.479
-782.549
-788.848
-841.553
-0.447706
-640.324
-872.895
-812.122
-94.4072
-861.855
-19.0611
-941.665
-374.052
-821.962
-2.97517
-775.795
-429.501
-832.088
-893.507
-301.538
-310.687
-860.277
-1011.22
-107.888
-839.558
-886.929
-851.91
-553.014
-787.245
-888.991
-961.77
-834.89
-613.195
4.01907
-878.337
-535.678
-367.285
-571.775
-218.033
-856.709
-904.533
-626.982
-615.82
-19.0584
-912.093
-706.595
-711.302
-1016.36
-843.39
-938.303
-400.916
-746.701
-885.735
-692.906
-947.274
-1010.57
-888.513
-825.614
-917.643
-792.924
-11.8846
-1036.37
-1054.57
-605.244
-747.876
-779.688
-513.154
-531.148
-457.139
-559.407
-289.92
-1152.18
-834.074
-821.346
-1015.56
-886.97
-836.198
-855.388
-126.209
-740.62
-867.214
-333.905
-190.756
-745.698
-886.955
-1026.95
-646.539
-700.414
-843.699
-930.539
-902.881
-1120.99
-603.169
-1086.02
-1069.08
-458.672
-833.464
-961.472
-777.698
-58.2514
-795.442
-821.068
-820.067
-632.147
-12.9898
-700.781
-843.663
-37.6978
-866.736
-1022.96
-845.115
-882.606
-798.095
-519.062
-229.187
-954.272
-1025.79
-1058.59
-324.009
21.0804
-845.211
-848.976
-1109.24
-671.29
-3.0226
-22.3217
-642.8
-646.232
-1045.54
-1052.91
-439.69
-265.347
-923.298
-1008.88
-1080.06
42.1192
-798.476
-486.999
-177.052
-1013.53
-908.685
-722.056
-675.134
-970.855
-915.347
-903.095
-797.004
-841.757
-906.441
-503.002
-510.327
-169.973
-82.364
-834.658
-525.528
-956.446
-1054.48
-596.635
-846.645
-1155.34
-240.643
-948.071
-957.653
-808.681
-841.571
-1063.13
-217.097
-1039.49
-1023.46
-680.761
-954.605
-861.059
-791.406
-67.3589
-516.261
-93.6702
-994.023
-977.628
-719.508
-473.439
-964.594
-815.776
-1074.85
-808.428
-806.972
-899.663
-904.052
-925.553
-913.157
-475.382
4.64265
-982.877
-159.739
-124.395
-782.709
-926.375
-141.991
-70.2
-731.012
-914.122
-932.521
-510.885
-915.552
-639.403
-613.234
-646.127
-879.098
-873.821
-778.195
-1048.26
-890.909
-1060.59
-1081.19
-1146.89
-258.97
-174.783
-134.25
-479.588
-905.713
-899.869
-469.355
-553.544
-741.719
-233.757
-821.727
-794.369
-775.314
-31.165
-859.721
-1103.55
-765.272
-921.254
-48.384
-42.9618
-1074.62
-654.214
-843.642
-854.162
-714.461
-1002.16
-914.722
-1068.17
-1095.68
-898.792
-301.612
-836.098
-848.125
-16.1984
-1020.83
-964.217
-967.655
-817.967
-874.079
-866.946
-778.685
-960.53
-383.685
-939.78
-249.145
-79.8682
-118.716
-984.787
-451.889
-1085.29
-984.568
-875.205
-1008.97
4.68795
-855.173
-734.955
-949.272
-949.859
-704.117
-705.364
-801.235
-882.864
-887.88
-331.733
-905.919
-157.607
-1089.41
-792.137
-762.328
-829.98
-823.737
-929.613
-970.406
-951.998
-186.894
-1037.22
-950.66
-393.927
-656.886
-796.806
-702.324
-802.194
-434.611
-989.783
-955.798
-869.264
-237.945
-1033.63
-762.66
-662.288
-760.427
-832.513
-442.807
-21.9955
-882.156
-995.201
-943.789
-838.303
-241.165
-924.182
-930.357
-841.034
-945.029
-848.265
-894.912
-496.602
-758.709
-851.8
-1031.82
-852.44
-838.548
-734.254
-789.895
-675.415
-872.817
-710.782
-873.969
-453.941
-452.961
-934.271
-842.371
-599.532
-632.784
-427.885
-873.073
-1044.01
-983.961
-682.381
-666.854
-1036.54
-911.197
-886.689
-877.096
-857.596
-916.78
-899.159
-934.463
-13.7571
-1097.51
-487.652
-134.395
-910.764
-906.234
-706.12
-1032.97
-547.683
-331.191
-861.257
-936.081
-962.15
-965.27
-1079.26
-722.185
-739.352
-630.706
-649.817
-871.578
-807.096
-872.894
-855.491
-835.871
-762.499
-528.238
-793.912
-855.614
-504.521
-537.921
-829.52
-834.168
-762.788
-1100.26
-860.46
-731.521
-505.896
-832.716
-787.213
-645.174
-1042.48
-960.394
-821.202
-434.079
-970.26
-948.781
-817.267
-1080.2
-959.735
-970.303
-75.5475
-434.014
-906.206
-495.206
-9.03198
-957.239
-862.701
-99.2162
-824.692
-712.394
-727.075
-385.228
-383.024
-83.0697
-1007.2
-937.301
-986.534
-895.804
-980.741
-615.426
-1063.98
-1043.48
-569.095
-925.826
-1005.79
-941.257
-1004.57
-880.815
-824.25
-819.984
-127.61
-845.052
-842.671
-942.562
-955.162
-414.19
-320.937
-374.229
-66.3826
-1006.87
-1023.26
-361.64
-1095.88
-709.458
-677.213
-716.11
-720.8
-725.845
-831.487
-866.65
-287.956
-880.523
-469.756
-816.552
-803.953
-963.758
-1106.94
-60.398
-291.847
-103.209
-855.501
-825.173
-796.626
-873.104
-820.109
-84.9661
-854.898
-864.84
-403.89
-951.007
-1088.58
-1079.62
-635.061
-802.755
-815.256
-981.368
-873.583
-496.748
-808.912
-340.588
-1028.3
-963.42
-835.342
-828.904
-828.789
-213.548
-884.168
-1028.88
-812.363
-1016.82
-822.249
-894.544
-597.528
-402.026
-967.481
-306.24
-1083.04
-802.02
-807.588
-894.009
-1013.2
-419.213
-1026.88
-924.091
-1053.6
-674.6
-579.741
-265.536
-800.205
-144.481
-509.545
-754.063
-866.389
-867.802
-271.011
-252.887
-960.964
-245.856
-650.145
-820.074
-49.1952
-1140.61
-946.303
-211.318
-1.25973
-109.27
-106.274
-1047.3
-960.112
-947.646
-386.457
-853.556
-6.15952
-434.701
-906.468
-401.726
-783.607
-804.817
-445.752
-961.348
-851.188
-531.78
-544.886
-362.951
-373.847
-886.625
-837.721
-160.475
-185.173
-780.084
-761.085
-1126.19
-1017.63
-739.699
-374.038
-830.299
-116.456
-893.43
-1087.18
-844.794
-893.251
-873.235
-813.724
-694.63
-963.165
-822.028
-906.201
-877.125
-1004.24
-38.9611
-835.173
-1107.61
-804.562
-925.044
-872.765
-620.859
-707.79
-659.087
-722.94
-847.284
-767.823
-728.16
-757.425
-50.3538
-717.221
-954.34
-742.268
-949.578
-426.204
-1085.17
-830.854
-1131.34
40.677
-893.839
-886.424
-925.523
-809.233
-1037.02
-841.624
-862.563
-426.58
-406.205
-1079.15
-817.574
-847.241
-655.922
-649.921
-58.3987
-843.131
-733.235
-1061.85
-1045.06
-1071.71
-1056.27
-617.578
-998.15
-500.609
-980.467
-136.498
-978.302
-1003.22
-862.403
-104.196
4.99295
-772.419
-793.273
-884.893
-532.494
-787.488
-892.045
-864.517
-952.771
-1028.27
-1044.95
-842.372
-999.512
-812.825
-996.052
-472.251
-1046.46
-860.416
-21.2611
-165.058
-987.734
2.575
-1017.58
-1069.83
-900.407
-1065.55
-833.307
2.43954
-227.691
-998.988
-974.905
-103.421
-1150.52
-369.428
-778.568
-1085.36
-996.068
-762.119
-94.5719
-65.3997
-452.05
-796.705
-984.54
-821.205
-1037.06
-426.64
-490.923
-143.444
-863.154
-76.0538
-1032.98
-799.67
-217.608
-521.273
-837.758
-427.775
-1009.72
-998.431
-735.305
-259.298
-982.557
-690.515
-728.256
-556.976
-539.654
-848.511
-743.203
-878.292
-1073.74
-1056.71
-59.9842
-749.442
-794.529
-984.519
-710.166
-753.766
-141.282
-614.631
-664.478
-103.22
-390.207
-856.026
-876.089